 &FCI NORB=   4,NELEC= 4,MS2=0,
  ORBSYM=1,1,1,1
  ISYM=1,
 &END
 0.6953308966524275    1    1    1    1
 0.224667026920826    2    1    2    1
 0.224667026920826    2    2    1    1
 0.4017910613801668    2    2    2    2
 -0.2771814185804509    3    1    1    1
 0.1043111534440275    3    1    2    2
 0.2246670269208259    3    1    3    1
 0.1043111534440275    3    2    2    1
 0.4017910613801669    3    2    3    2
 0.2246670269208259    3    3    1    1
 0.4017910613801669    3    3    2    2
 0.1043111534440276    3    3    3    1
 0.401791061380167    3    3    3    3
 0.277181418580451    4    1    2    1
 -0.2246670269208259    4    1    3    2
 0.6953308966524272    4    1    4    1
 0.277181418580451    4    2    1    1
 -0.1043111534440274    4    2    2    2
 -0.2246670269208259    4    2    3    1
 -0.1043111534440275    4    2    3    3
 0.2246670269208259    4    2    4    2
 -0.2246670269208259    4    3    2    1
 -0.1043111534440275    4    3    3    2
 -0.2771814185804508    4    3    4    1
 0.2246670269208257    4    3    4    3
 0.6953308966524272    4    4    1    1
 0.2246670269208259    4    4    2    2
 -0.2771814185804508    4    4    3    1
 0.2246670269208257    4    4    3    3
 0.2771814185804509    4    4    4    2
 0.695330896652427    4    4    4    4
 -1.312912113492575    1    1  0  0
 -0.4610344417099871    2    2  0  0
 0.1728702651364226    3    1  0  0
 -1.534369412475706e-15    3    2  0  0
 1.208118265108003    3    3  0  0
 -0.1728702651364243    4    2  0  0
 1.472916266346068    4    4  0  0
 0  0  0  0  0
