 &FCI NORB=   4,NELEC= 4,MS2=0,
  ORBSYM=1,1,1,1
  ISYM=1,
 &END
 0.6953308966524263    1    1    1    1
 0.2246670269208259    2    1    2    1
 0.2246670269208259    2    2    1    1
 0.4017910613801661    2    2    2    2
 -0.2771814185804506    3    1    1    1
 1.011018525842733e-15    3    1    2    1
 0.1043111534440275    3    1    2    2
 0.2246670269208262    3    1    3    1
 0.1043111534440275    3    2    2    1
 0.401791061380167    3    2    3    2
 0.2246670269208262    3    3    1    1
 0.401791061380167    3    3    2    2
 0.1043111534440278    3    3    3    1
 0.4017910613801678    3    3    3    3
 -2.411821285221161e-15    4    1    1    1
 -0.2771814185804506    4    1    2    1
 1.729519305548877e-15    4    1    2    2
 1.357692170494973e-15    4    1    3    1
 0.224667026920826    4    1    3    2
 0.6953308966524264    4    1    4    1
 -0.2771814185804506    4    2    1    1
 1.708811044054404e-15    4    2    2    1
 0.1043111534440272    4    2    2    2
 0.224667026920826    4    2    3    1
 0.1043111534440276    4    2    3    3
 -1.272013093814306e-15    4    2    4    1
 0.2246670269208258    4    2    4    2
 1.357637960386349e-15    4    3    1    1
 0.224667026920826    4    3    2    1
 0.1043111534440276    4    3    3    2
 -0.2771814185804509    4    3    4    1
 0.2246670269208261    4    3    4    3
 0.6953308966524264    4    4    1    1
 -1.272013093814306e-15    4    4    2    1
 0.2246670269208259    4    4    2    2
 -0.2771814185804509    4    4    3    1
 0.2246670269208261    4    4    3    3
 -0.2771814185804507    4    4    4    2
 0.6953308966524264    4    4    4    4
 -1.312912113492571    1    1  0  0
 -0.4610344417099858    2    2  0  0
 0.1728702651364235    3    1  0  0
 -1.250583918585562e-15    3    2  0  0
 1.208118265108004    3    3  0  0
 0.172870265136424    4    2  0  0
 1.47291626634607    4    4  0  0
 0  0  0  0  0
