 &FCI NORB=   4,NELEC= 4,MS2=0,
  ORBSYM=1,1,1,1
  ISYM=1,
 &END
 0.6953308966524261    1    1    1    1
 0.2246670269208259    2    1    2    1
 0.2246670269208259    2    2    1    1
 0.4017910613801674    2    2    2    2
 -0.2771814185804506    3    1    1    1
 0.1043111534440277    3    1    2    2
 0.2246670269208261    3    1    3    1
 0.1043111534440278    3    2    2    1
 1.221245327087672e-15    3    2    2    2
 1.249000902703301e-15    3    2    3    1
 0.4017910613801673    3    2    3    2
 0.2246670269208261    3    3    1    1
 1.255939796607208e-15    3    3    2    1
 0.4017910613801673    3    3    2    2
 0.1043111534440276    3    3    3    1
 0.4017910613801672    3    3    3    3
 -1.221245327087672e-15    4    1    1    1
 -0.2771814185804504    4    1    2    1
 1.929012505286209e-15    4    1    2    2
 1.942890293094024e-15    4    1    3    1
 0.2246670269208261    4    1    3    2
 -1.054711873393899e-15    4    1    3    3
 0.6953308966524264    4    1    4    1
 -0.2771814185804504    4    2    1    1
 1.929012505286209e-15    4    2    2    1
 0.1043111534440279    4    2    2    2
 0.2246670269208261    4    2    3    1
 0.1043111534440277    4    2    3    3
 -2.05391259555654e-15    4    2    4    1
 0.224667026920826    4    2    4    2
 1.970645868709653e-15    4    3    1    1
 0.2246670269208261    4    3    2    1
 -1.054711873393899e-15    4    3    3    1
 0.1043111534440277    4    3    3    2
 -0.2771814185804508    4    3    4    1
 0.2246670269208262    4    3    4    3
 0.6953308966524264    4    4    1    1
 -2.05391259555654e-15    4    4    2    1
 0.224667026920826    4    4    2    2
 -0.2771814185804508    4    4    3    1
 0.2246670269208262    4    4    3    3
 1.27675647831893e-15    4    4    4    1
 -0.2771814185804505    4    4    4    2
 0.6953308966524266    4    4    4    4
 -1.312912113492573    1    1  0  0
 -0.4610344417099913    2    2  0  0
 0.1728702651364229    3    1  0  0
 -1.332267629550188e-15    3    2  0  0
 1.208118265108    3    3  0  0
 0.1728702651364219    4    2  0  0
 -1.324685551974922e-15    4    3  0  0
 1.472916266346068    4    4  0  0
 0  0  0  0  0
