 &FCI NORB=   4,NELEC= 4,MS2=0,
  ORBSYM=1,1,1,1
  ISYM=1,
 &END
 0.6953308966524263    1    1    1    1
 0.224667026920826    2    1    2    1
 0.224667026920826    2    2    1    1
 0.4017910613801679    2    2    2    2
 -0.2771814185804506    3    1    1    1
 0.1043111534440281    3    1    2    2
 0.2246670269208262    3    1    3    1
 0.1043111534440281    3    2    2    1
 0.401791061380168    3    2    3    2
 0.2246670269208262    3    3    1    1
 0.4017910613801679    3    3    2    2
 0.1043111534440279    3    3    3    1
 0.4017910613801679    3    3    3    3
 -0.2771814185804504    4    1    2    1
 0.2246670269208261    4    1    3    2
 0.6953308966524265    4    1    4    1
 -0.2771814185804504    4    2    1    1
 0.104311153444028    4    2    2    2
 0.2246670269208261    4    2    3    1
 0.1043111534440279    4    2    3    3
 0.224667026920826    4    2    4    2
 0.2246670269208261    4    3    2    1
 0.1043111534440279    4    3    3    2
 -0.2771814185804509    4    3    4    1
 0.2246670269208263    4    3    4    3
 0.6953308966524265    4    4    1    1
 0.224667026920826    4    4    2    2
 -0.2771814185804508    4    4    3    1
 0.2246670269208262    4    4    3    3
 -0.2771814185804506    4    4    4    2
 0.695330896652427    4    4    4    4
 -1.312912113492574    1    1  0  0
 -0.461034441709991    2    2  0  0
 0.1728702651364223    3    1  0  0
 -1.249000902703301e-15    3    2  0  0
 1.208118265108001    3    3  0  0
 0.1728702651364221    4    2  0  0
 1.472916266346068    4    4  0  0
 0  0  0  0  0
