 &FCI NORB=   4,NELEC= 4,MS2=0,
  ORBSYM=1,1,1,1
  ISYM=1,
 &END
 0.6953308966524264    1    1    1    1
 0.2246670269208261    2    1    2    1
 0.2246670269208261    2    2    1    1
 0.401791061380168    2    2    2    2
 -0.2771814185804508    3    1    1    1
 0.1043111534440278    3    1    2    2
 0.224667026920826    3    1    3    1
 0.1043111534440279    3    2    2    1
 0.4017910613801676    3    2    3    2
 0.2246670269208261    3    3    1    1
 0.4017910613801676    3    3    2    2
 0.1043111534440276    3    3    3    1
 0.4017910613801673    3    3    3    3
 -0.2771814185804508    4    1    2    1
 0.2246670269208261    4    1    3    2
 0.6953308966524265    4    1    4    1
 -0.2771814185804508    4    2    1    1
 0.1043111534440279    4    2    2    2
 0.2246670269208261    4    2    3    1
 0.1043111534440278    4    2    3    3
 0.2246670269208261    4    2    4    2
 0.2246670269208261    4    3    2    1
 0.1043111534440278    4    3    3    2
 -0.2771814185804506    4    3    4    1
 0.2246670269208261    4    3    4    3
 0.6953308966524265    4    4    1    1
 0.2246670269208261    4    4    2    2
 -0.2771814185804507    4    4    3    1
 0.2246670269208261    4    4    3    3
 -0.2771814185804506    4    4    4    2
 0.6953308966524265    4    4    4    4
 -1.312912113492574    1    1  0  0
 -0.4610344417099911    2    2  0  0
 0.1728702651364232    3    1  0  0
 1.208118265108    3    3  0  0
 0.1728702651364233    4    2  0  0
 1.472916266346066    4    4  0  0
 0  0  0  0  0
