 &FCI NORB=   4,NELEC= 4,MS2=0,
  ORBSYM=1,1,1,1
  ISYM=1,
 &END
 0.695330896652427    1    1    1    1
 0.224667026920826    2    1    2    1
 0.224667026920826    2    2    1    1
 0.4017910613801673    2    2    2    2
 -0.2771814185804508    3    1    1    1
 0.1043111534440281    3    1    2    2
 0.2246670269208264    3    1    3    1
 0.1043111534440281    3    2    2    1
 0.4017910613801678    3    2    3    2
 0.2246670269208264    3    3    1    1
 0.4017910613801678    3    3    2    2
 0.104311153444028    3    3    3    1
 0.4017910613801682    3    3    3    3
 0.2771814185804506    4    1    2    1
 -0.2246670269208261    4    1    3    2
 -1.092116848344649e-15    4    1    3    3
 0.6953308966524272    4    1    4    1
 0.2771814185804506    4    2    1    1
 -0.1043111534440277    4    2    2    2
 -0.2246670269208261    4    2    3    1
 -0.1043111534440276    4    2    3    3
 0.2246670269208257    4    2    4    2
 -0.224667026920826    4    3    2    1
 -1.085177954440741e-15    4    3    3    1
 -0.1043111534440276    4    3    3    2
 -0.2771814185804511    4    3    4    1
 0.2246670269208261    4    3    4    3
 0.6953308966524272    4    4    1    1
 0.2246670269208257    4    4    2    2
 -0.2771814185804511    4    4    3    1
 0.2246670269208261    4    4    3    3
 1.085150849386429e-15    4    4    4    1
 0.2771814185804509    4    4    4    2
 0.6953308966524276    4    4    4    4
 -1.312912113492574    1    1  0  0
 -0.4610344417099863    2    2  0  0
 0.1728702651364235    3    1  0  0
 -2.005284134330006e-15    3    2  0  0
 1.208118265108004    3    3  0  0
 -0.1728702651364255    4    2  0  0
 1.47291626634607    4    4  0  0
 0  0  0  0  0
