 &FCI NORB=   4,NELEC= 4,MS2=0,
  ORBSYM=1,1,1,1
  ISYM=1,
 &END
 0.6953308966524273    1    1    1    1
 0.2246670269208263    2    1    2    1
 0.2246670269208263    2    2    1    1
 0.4017910613801681    2    2    2    2
 -0.2771814185804508    3    1    1    1
 0.104311153444028    3    1    2    2
 0.2246670269208262    3    1    3    1
 0.104311153444028    3    2    2    1
 0.4017910613801681    3    2    3    2
 0.2246670269208262    3    3    1    1
 0.4017910613801681    3    3    2    2
 0.1043111534440281    3    3    3    1
 0.4017910613801681    3    3    3    3
 1.524252729243059e-15    4    1    1    1
 0.2771814185804509    4    1    2    1
 -1.198477081465477e-15    4    1    2    2
 -0.2246670269208262    4    1    3    2
 0.6953308966524271    4    1    4    1
 0.2771814185804509    4    2    1    1
 -1.184599293657662e-15    4    2    2    1
 -0.1043111534440279    4    2    2    2
 -0.2246670269208262    4    2    3    1
 -0.1043111534440279    4    2    3    3
 0.2246670269208261    4    2    4    2
 -0.2246670269208262    4    3    2    1
 -0.1043111534440279    4    3    3    2
 -0.2771814185804508    4    3    4    1
 0.224667026920826    4    3    4    3
 0.6953308966524271    4    4    1    1
 0.2246670269208261    4    4    2    2
 -0.2771814185804507    4    4    3    1
 0.224667026920826    4    4    3    3
 0.2771814185804508    4    4    4    2
 0.6953308966524269    4    4    4    4
 -1.312912113492575    1    1  0  0
 -0.4610344417099893    2    2  0  0
 0.1728702651364225    3    1  0  0
 1.208118265108002    3    3  0  0
 -0.1728702651364236    4    2  0  0
 1.472916266346068    4    4  0  0
 0  0  0  0  0
