 &FCI NORB=   4,NELEC= 4,MS2=0,
  ORBSYM=1,1,1,1
  ISYM=1,
 &END
 0.6953308966524266    1    1    1    1
 0.2246670269208262    2    1    2    1
 0.2246670269208262    2    2    1    1
 0.4017910613801673    2    2    2    2
 -0.2771814185804508    3    1    1    1
 1.464106613724425e-15    3    1    2    1
 0.1043111534440274    3    1    2    2
 0.2246670269208259    3    1    3    1
 1.484923295436147e-15    3    2    1    1
 0.1043111534440274    3    2    2    1
 1.443289932012704e-15    3    2    2    2
 1.373900992973631e-15    3    2    3    1
 0.4017910613801669    3    2    3    2
 0.2246670269208259    3    3    1    1
 1.360023205165817e-15    3    3    2    1
 0.401791061380167    3    3    2    2
 0.1043111534440274    3    3    3    1
 0.4017910613801665    3    3    3    3
 -2.027891743416887e-15    4    1    1    1
 -0.277181418580451    4    1    2    1
 2.421673972463623e-15    4    1    2    2
 1.831867990631508e-15    4    1    3    1
 0.224667026920826    4    1    3    2
 0.6953308966524262    4    1    4    1
 -0.2771814185804511    4    2    1    1
 2.407796184655808e-15    4    2    2    1
 0.1043111534440274    4    2    2    2
 0.224667026920826    4    2    3    1
 0.1043111534440274    4    2    3    3
 -1.540434446667405e-15    4    2    4    1
 0.2246670269208262    4    2    4    2
 1.835337437583462e-15    4    3    1    1
 0.224667026920826    4    3    2    1
 0.1043111534440275    4    3    3    2
 -0.2771814185804506    4    3    4    1
 0.2246670269208259    4    3    4    3
 0.6953308966524262    4    4    1    1
 -1.512678871051776e-15    4    4    2    1
 0.2246670269208262    4    4    2    2
 -0.2771814185804506    4    4    3    1
 0.2246670269208258    4    4    3    3
 -0.2771814185804508    4    4    4    2
 0.695330896652426    4    4    4    4
 -1.312912113492575    1    1  0  0
 -0.4610344417099881    2    2  0  0
 0.172870265136423    3    1  0  0
 -3.08409366565867e-15    3    2  0  0
 1.208118265108002    3    3  0  0
 0.1728702651364229    4    2  0  0
 -1.731805604433822e-15    4    3  0  0
 1.472916266346068    4    4  0  0
 0  0  0  0  0
