 &FCI NORB=   4,NELEC= 4,MS2=0,
  ORBSYM=1,1,1,1
  ISYM=1,
 &END
 0.6953308966524268    1    1    1    1
 0.2246670269208263    2    1    2    1
 0.2246670269208263    2    2    1    1
 0.4017910613801682    2    2    2    2
 -0.2771814185804506    3    1    1    1
 -1.251874038460388e-15    3    1    2    1
 0.104311153444028    3    1    2    2
 0.224667026920826    3    1    3    1
 -1.2172879891581e-15    3    2    1    1
 0.104311153444028    3    2    2    1
 0.4017910613801679    3    2    3    2
 0.224667026920826    3    3    1    1
 0.4017910613801679    3    3    2    2
 0.1043111534440279    3    3    3    1
 0.4017910613801675    3    3    3    3
 2.246250060955468e-15    4    1    1    1
 -0.2771814185804508    4    1    2    1
 -1.507583120841094e-15    4    1    2    2
 0.2246670269208262    4    1    3    2
 0.695330896652427    4    1    4    1
 -0.2771814185804508    4    2    1    1
 -1.514576224853625e-15    4    2    2    1
 0.1043111534440281    4    2    2    2
 0.2246670269208262    4    2    3    1
 0.104311153444028    4    2    3    3
 0.2246670269208264    4    2    4    2
 0.2246670269208262    4    3    2    1
 -1.008253810302895e-15    4    3    3    1
 0.104311153444028    4    3    3    2
 -0.2771814185804506    4    3    4    1
 -1.28461694406945e-15    4    3    4    2
 0.2246670269208261    4    3    4    3
 0.695330896652427    4    4    1    1
 0.2246670269208264    4    4    2    2
 -0.2771814185804506    4    4    3    1
 -1.270847576478884e-15    4    4    3    2
 0.2246670269208261    4    4    3    3
 1.276973318753427e-15    4    4    4    1
 -0.2771814185804509    4    4    4    2
 0.6953308966524271    4    4    4    4
 -1.312912113492573    1    1  0  0
 -0.4610344417099913    2    2  0  0
 0.1728702651364228    3    1  0  0
 1.415805406940196e-15    3    2  0  0
 1.208118265108    3    3  0  0
 0.1728702651364228    4    2  0  0
 1.47291626634607    4    4  0  0
 0  0  0  0  0
