 &FCI NORB=   4,NELEC= 4,MS2=0,
  ORBSYM=1,1,1,1
  ISYM=1,
 &END
 0.6953308966524268    1    1    1    1
 0.2246670269208265    2    1    2    1
 0.2246670269208265    2    2    1    1
 0.4017910613801673    2    2    2    2
 -0.2771814185804509    3    1    1    1
 0.1043111534440276    3    1    2    2
 0.2246670269208263    3    1    3    1
 0.1043111534440276    3    2    2    1
 1.067722299463725e-15    3    2    3    1
 0.4017910613801672    3    2    3    2
 0.2246670269208263    3    3    1    1
 1.067505459029228e-15    3    3    2    1
 0.4017910613801672    3    3    2    2
 0.1043111534440276    3    3    3    1
 0.4017910613801672    3    3    3    3
 -0.2771814185804511    4    1    2    1
 1.036280436461645e-15    4    1    2    2
 1.50790838149284e-15    4    1    3    1
 0.2246670269208264    4    1    3    2
 -1.077913799885089e-15    4    1    3    3
 0.6953308966524266    4    1    4    1
 -0.2771814185804511    4    2    1    1
 1.043436170800049e-15    4    2    2    1
 0.1043111534440275    4    2    2    2
 0.2246670269208264    4    2    3    1
 0.1043111534440276    4    2    3    3
 -1.602288180607703e-15    4    2    4    1
 0.2246670269208265    4    2    4    2
 1.50790838149284e-15    4    3    1    1
 0.2246670269208264    4    3    2    1
 -1.064144432294523e-15    4    3    3    1
 0.1043111534440276    4    3    3    2
 -0.2771814185804508    4    3    4    1
 0.2246670269208263    4    3    4    3
 0.6953308966524266    4    4    1    1
 -1.602288180607703e-15    4    4    2    1
 0.2246670269208265    4    4    2    2
 -0.2771814185804508    4    4    3    1
 0.2246670269208263    4    4    3    3
 1.254015337751047e-15    4    4    4    1
 -0.277181418580451    4    4    4    2
 0.6953308966524265    4    4    4    4
 -1.312912113492575    1    1  0  0
 -0.4610344417099898    2    2  0  0
 0.1728702651364243    3    1  0  0
 1.208118265108004    3    3  0  0
 0.1728702651364219    4    2  0  0
 1.472916266346068    4    4  0  0
 0  0  0  0  0
