arg.atm = [[ 4 20  1 23  0  0]
 [ 4 24  1 27  0  0]]
arg.bas = [[ 0  0  4  2  0 28 32  0]
 [ 0  1  4  2  0 40 44  0]
 [ 1  0  4  2  0 28 32  0]
 [ 1  1  4  2  0 40 44  0]]
arg.env = [ 0.          0.          0.          0.          0.          0.
  0.          0.          0.          0.          0.          0.
  0.          0.          0.          0.          0.          0.
  0.          0.          0.          0.          0.          0.
  1.65351036  1.65351036  1.65351036  0.          4.33623764  1.28818385
  0.40377671  0.11878777  1.13179715 -0.08939889 -0.8807207  -0.20266289
  0.          0.          0.          0.51120349  4.33623764  1.28818385
  0.40377671  0.11878777 -1.60299215 -1.11123874 -0.44247981 -0.08255916
  0.          0.          0.          0.20344594]
ecpbas  = []
System: uname_result(system='Linux', node='zombie', release='4.4.0-203-generic', version='#235-Ubuntu SMP Tue Feb 2 02:49:08 UTC 2021', machine='x86_64', processor='x86_64')  Threads 16
Python 3.8.8 (default, Feb 20 2021, 21:11:43) 
[GCC 5.4.0 20160609]
numpy 1.20.1  scipy 1.6.1
Date: Thu Jun 17 12:20:37 2021
PySCF version 2.0.0a
PySCF path  /home/max/git/pyscf
GIT ORIG_HEAD d2ceb2195974a7f36708b894e68b4c363b18e101
GIT HEAD (branch master) d2ceb2195974a7f36708b894e68b4c363b18e101

[ENV] PYSCFHOME /home/max/git/pyscf
[ENV] PYSCF_MAX_MEMORY 64000
[CONFIG] DEBUG = False
[CONFIG] MAX_MEMORY = 64000
[CONFIG] TMPDIR = .
[CONFIG] UNIT = angstrom
[CONFIG] VERBOSE = 3
[CONFIG] conf_file = None
[INPUT] verbose = 10
[INPUT] max_memory = 64000 
[INPUT] num. atoms = 2
[INPUT] num. electrons = 8
[INPUT] charge = 0
[INPUT] spin (= nelec alpha-beta = 2S) = 0
[INPUT] symmetry False subgroup None
[INPUT] Mole.unit = angstrom
[INPUT]  1 C      0.000000000000   0.000000000000   0.000000000000 AA    0.000000000000   0.000000000000   0.000000000000 Bohr
[INPUT]  2 C      0.875000000000   0.875000000000   0.875000000000 AA    1.653510358994   1.653510358994   1.653510358994 Bohr
[INPUT] ---------------- BASIS SET ---------------- 
[INPUT] l, kappa, [nprim/nctr], expnt,             c_1 c_2 ...
[INPUT] C
[INPUT] 0    0    [4    /2   ]  4.3362376436      0.1490797872    0
                                1.2881838513      -0.0292640031    0
                                0.4037767149      -0.688204051    0
                                0.1187877657      -0.3964426906    1
[INPUT] 1    0    [4    /2   ]  4.3362376436      -0.0878123619    0
                                1.2881838513      -0.27755603    0
                                0.4037767149      -0.4712295093    0
                                0.1187877657      -0.4058039291    1

Ewald components = 8.65406046977517e-18, -40.1378042628034, 27.1066236158498
nuclear repulsion = -13.0311806469536
number of shells = 4
number of NR pGTOs = 32
number of NR cGTOs = 16
basis = gth-dzv
ecp = {}
bas 0, expnt(s) = [4.33623764 1.28818385 0.40377671 0.11878777]
bas 1, expnt(s) = [4.33623764 1.28818385 0.40377671 0.11878777]
bas 2, expnt(s) = [4.33623764 1.28818385 0.40377671 0.11878777]
bas 3, expnt(s) = [4.33623764 1.28818385 0.40377671 0.11878777]
CPU time:         1.97
lattice vectors  a1 [3.307020718, 3.307020718, 0.000000000]
                 a2 [0.000000000, 3.307020718, 3.307020718]
                 a3 [3.307020718, 0.000000000, 3.307020718]
dimension = 3
low_dim_ft_type = None
Cell volume = 72.3337
rcut = 20.60710622719259 (nimgs = [6 6 6])
lattice sum = 1217 cells
precision = 1e-08
pseudo = gth-pade
ke_cutoff = 257.0619664735998
    = [28 28 28] mesh (21952 PWs)
eta_guess = 0.2


******** <class 'pyscf.pbc.scf.khf.KRHF'> ********
method = KRHF-KSCF-RHF-SCF-RHF
initial guess = minao
damping factor = 0
level_shift factor = 0
DIIS = <class 'pyscf.scf.diis.CDIIS'>
diis_start_cycle = 1
diis_space = 8
SCF conv_tol = 1e-07
SCF conv_tol_grad = None
SCF max_cycles = 50
direct_scf = True
direct_scf_tol = 1e-13
chkfile to save SCF result = /home/max/git/vayesta/vayesta/ewf/test/tmp159wqpvb
max_memory 64000 MB (current use 87 MB)


******** PBC SCF flags ********
N kpts = 8
kpts = [[ 0.          0.          0.        ]
 [ 0.47498835 -0.47498835  0.47498835]
 [-0.47498835  0.47498835  0.47498835]
 [ 0.          0.          0.94997671]
 [ 0.47498835  0.47498835 -0.47498835]
 [ 0.94997671  0.          0.        ]
 [ 0.          0.94997671  0.        ]
 [ 0.47498835  0.47498835  0.47498835]]
Exchange divergence treatment (exxdiv) = ewald
Monkhorst pack size [2 2 2] ew_eta 2.207401477096274 ew_cut 3.139573895692605
Ewald components = 1.25526422573201e-187, -1.24595001153108, 1.07264968814688
    madelung (= occupied orbital energy shift) = 0.3466006467684011
    Total energy shift due to Ewald probe charge = -1/2 * Nelec*madelung = -1.38640258707
DF object = <pyscf.pbc.df.df.GDF object at 0x7fa1e4dd6760>
Set gradient conv threshold to 0.000316228
Big error detected in the electron number of initial guess density matrix (Ne/cell = 7.92207)!
  This can cause huge error in Fock matrix and lead to instability in SCF for low-dimensional systems.
  DM is normalized wrt the number of electrons 8.0
    CPU time for vnuc pass1: analytic int     41.99 sec, wall time      6.11 sec
    CPU time for contracting Vnuc [0:216]      3.19 sec, wall time      0.52 sec
    CPU time for contracting Vnuc      3.19 sec, wall time      0.52 sec
    CPU time for get_pp_loc_part1     45.19 sec, wall time      6.64 sec
    CPU time for get_pp_loc_part2     25.08 sec, wall time      3.25 sec
    CPU time for get_pp_nl      0.17 sec, wall time      0.02 sec
    CPU time for get_pp     70.45 sec, wall time      9.91 sec


******** <class 'pyscf.pbc.df.df.GDF'> ********
mesh = [7, 7, 7] (343 PWs)
auxbasis = None
eta = 0.2
exp_to_discard = None
_cderi_to_save = /home/max/git/vayesta/vayesta/ewf/test/tmpn6e4m81x
len(kpts) = 8
    kpts = [[ 0.          0.          0.        ]
 [ 0.47498835 -0.47498835  0.47498835]
 [-0.47498835  0.47498835  0.47498835]
 [ 0.          0.          0.94997671]
 [ 0.47498835  0.47498835 -0.47498835]
 [ 0.94997671  0.          0.        ]
 [ 0.          0.94997671  0.        ]
 [ 0.47498835  0.47498835  0.47498835]]
Even tempered Gaussians are generated as DF auxbasis for  C
  ETB auxbasis for C  [[0, [7.6024170048, 1]], [0, [3.8012085024, 1]], [0, [1.9006042512, 1]], [0, [0.9503021256, 1]], [0, [0.4751510628, 1]], [0, [0.2375755314, 1]], [1, [7.6024170048, 1]], [1, [3.8012085024, 1]], [1, [1.9006042512, 1]], [1, [0.9503021256, 1]], [1, [0.4751510628, 1]], [1, [0.2375755314, 1]], [2, [7.6024170048, 1]], [2, [3.8012085024, 1]], [2, [1.9006042512, 1]], [2, [0.9503021256, 1]], [2, [0.4751510628, 1]], [2, [0.2375755314, 1]]]
num shells = 36, num cGTOs = 108
Drop 0 primitive fitting functions
make aux basis, num shells = 36, num cGTOs = 108
auxcell.rcut 11.74299217792449
make compensating basis, num shells = 6, num cGTOs = 18
chgcell.rcut 17.56600021401809
    CPU time for 3c2e    763.31 sec, wall time    134.97 sec
Num uniq kpts 14
uniq_kpts [[ 0.          0.          0.        ]
 [-0.47498835  0.47498835 -0.47498835]
 [ 0.47498835 -0.47498835 -0.47498835]
 [ 0.94997671 -0.94997671  0.        ]
 [ 0.          0.         -0.94997671]
 [-0.47498835 -0.47498835  0.47498835]
 [ 0.         -0.94997671  0.94997671]
 [-0.94997671  0.          0.94997671]
 [-0.47498835 -0.47498835  1.42496506]
 [-0.94997671  0.          0.        ]
 [-1.42496506  0.47498835  0.47498835]
 [ 0.         -0.94997671  0.        ]
 [ 0.47498835 -1.42496506  0.47498835]
 [-0.47498835 -0.47498835 -0.47498835]]
max_memory 63697.952768 (MB)  blocksize 15798103
Cholesky decomposition for j2c at kpt 0
Symmetry pattern (k - [0. 0. 0.])*a= 2n pi
    make_kpt for uniq_kptji_ids [0]
kpt = [0. 0. 0.]
adapted_ji_idx = [ 0  2  5  9 14 20 27 35]
memory = 304.738304
int3c2e [1/1], AO [0:4], ncol = 136
Symmetry pattern (k + [0. 0. 0.])*a= 2n pi
    make_kpt for [0]
Cholesky decomposition for j2c at kpt 1
Symmetry pattern (k - [-0.47498835  0.47498835 -0.47498835])*a= 2n pi
    make_kpt for uniq_kptji_ids [1]
kpt = [-0.47498835  0.47498835 -0.47498835]
adapted_ji_idx = [ 1  8 19 34]
memory = 385.37216
int3c2e [1/1], AO [0:4], ncol = 256
Symmetry pattern (k + [-0.47498835  0.47498835 -0.47498835])*a= 2n pi
    make_kpt for [1]
Cholesky decomposition for j2c at kpt 2
Symmetry pattern (k - [ 0.47498835 -0.47498835 -0.47498835])*a= 2n pi
    make_kpt for uniq_kptji_ids [2]
kpt = [ 0.47498835 -0.47498835 -0.47498835]
adapted_ji_idx = [ 3  7 25 33]
memory = 456.704
int3c2e [1/1], AO [0:4], ncol = 256
Symmetry pattern (k + [ 0.47498835 -0.47498835 -0.47498835])*a= 2n pi
    make_kpt for [2]
Cholesky decomposition for j2c at kpt 3
Symmetry pattern (k - [ 0.94997671 -0.94997671  0.        ])*a= 2n pi
    make_kpt for uniq_kptji_ids [3 4]
kpt = [ 0.94997671 -0.94997671  0.        ]
adapted_ji_idx = [ 4 26]
memory = 474.35776
int3c2e [1/1], AO [0:4], ncol = 256
kpt = [ 0.          0.         -0.94997671]
adapted_ji_idx = [ 6 32]
memory = 513.724416
int3c2e [1/1], AO [0:4], ncol = 256
Symmetry pattern (k + [ 0.94997671 -0.94997671  0.        ])*a= 2n pi
    make_kpt for [3 4]
Cholesky decomposition for j2c at kpt 5
Symmetry pattern (k - [-0.47498835 -0.47498835  0.47498835])*a= 2n pi
    make_kpt for uniq_kptji_ids [5]
kpt = [-0.47498835 -0.47498835  0.47498835]
adapted_ji_idx = [10 16 23 31]
memory = 514.686976
int3c2e [1/1], AO [0:4], ncol = 256
Symmetry pattern (k + [-0.47498835 -0.47498835  0.47498835])*a= 2n pi
    make_kpt for [5]
Cholesky decomposition for j2c at kpt 6
Symmetry pattern (k - [ 0.         -0.94997671  0.94997671])*a= 2n pi
    make_kpt for uniq_kptji_ids [6 9]
kpt = [ 0.         -0.94997671  0.94997671]
adapted_ji_idx = [11 24]
memory = 537.874432
int3c2e [1/1], AO [0:4], ncol = 256
kpt = [-0.94997671  0.          0.        ]
adapted_ji_idx = [15 30]
memory = 548.954112
int3c2e [1/1], AO [0:4], ncol = 256
Symmetry pattern (k + [ 0.         -0.94997671  0.94997671])*a= 2n pi
    make_kpt for [6 9]
Cholesky decomposition for j2c at kpt 7
Symmetry pattern (k - [-0.94997671  0.          0.94997671])*a= 2n pi
    make_kpt for uniq_kptji_ids [ 7 11]
kpt = [-0.94997671  0.          0.94997671]
adapted_ji_idx = [12 18]
memory = 550.2976
int3c2e [1/1], AO [0:4], ncol = 256
kpt = [ 0.         -0.94997671  0.        ]
adapted_ji_idx = [21 29]
memory = 550.2976
int3c2e [1/1], AO [0:4], ncol = 256
Symmetry pattern (k + [-0.94997671  0.          0.94997671])*a= 2n pi
    make_kpt for [ 7 11]
Cholesky decomposition for j2c at kpt 8
Symmetry pattern (k - [-0.47498835 -0.47498835  1.42496506])*a= 2n pi
    make_kpt for uniq_kptji_ids [ 8 10 12 13]
kpt = [-0.47498835 -0.47498835  1.42496506]
adapted_ji_idx = [13]
memory = 550.33856
int3c2e [1/1], AO [0:4], ncol = 256
kpt = [-1.42496506  0.47498835  0.47498835]
adapted_ji_idx = [17]
memory = 552.411136
int3c2e [1/1], AO [0:4], ncol = 256
kpt = [ 0.47498835 -1.42496506  0.47498835]
adapted_ji_idx = [22]
memory = 554.278912
int3c2e [1/1], AO [0:4], ncol = 256
kpt = [-0.47498835 -0.47498835 -0.47498835]
adapted_ji_idx = [28]
memory = 554.504192
int3c2e [1/1], AO [0:4], ncol = 256
Symmetry pattern (k + [-0.47498835 -0.47498835  1.42496506])*a= 2n pi
    make_kpt for [ 8 10 12 13]
    CPU time for j3c    954.78 sec, wall time    151.81 sec
    CPU time for Init get_k_kpts    954.85 sec, wall time    151.82 sec
    CPU time for get_k_kpts: make_kpt ki>=kj (0,*)      1.07 sec, wall time      0.11 sec
    CPU time for get_k_kpts: make_kpt ki>=kj (1,*)      0.32 sec, wall time      0.05 sec
    CPU time for get_k_kpts: make_kpt ki>=kj (2,*)      0.59 sec, wall time      0.06 sec
    CPU time for get_k_kpts: make_kpt ki>=kj (3,*)      0.41 sec, wall time      0.04 sec
    CPU time for get_k_kpts: make_kpt ki>=kj (4,*)      0.92 sec, wall time      0.07 sec
    CPU time for get_k_kpts: make_kpt ki>=kj (5,*)      1.36 sec, wall time      0.11 sec
    CPU time for get_k_kpts: make_kpt ki>=kj (6,*)      0.57 sec, wall time      0.05 sec
    CPU time for get_k_kpts: make_kpt ki>=kj (7,*)      0.96 sec, wall time      0.08 sec
Monkhorst pack size [2 2 2] ew_eta 2.207401477096274 ew_cut 3.139573895692605
Ewald components = 1.25526422573201e-187, -1.24595001153108, 1.07264968814688
    CPU time for get_j pass 1      2.36 sec, wall time      0.17 sec
    CPU time for get_j pass 2      0.23 sec, wall time      0.02 sec
    CPU time for vj and vk    964.18 sec, wall time    152.61 sec
Ewald components = 8.65406046977517e-18, -40.1378042628034, 27.1066236158498
E1 = (4.126287771850534+2.2809747880317913e-20j)  E_coul = (-3.7412396472670055-1.4047558748129353e-31j)
init E= -12.6461325223701
cond(S) = [ 151304.16726249  171630.6535454   171630.65354531 2368836.8271175
  171630.65354368 2368836.82751221 2368836.82792844  171630.65354821]
    CPU time for initialize scf   1036.35 sec, wall time    162.64 sec
HOMO = 0.654375359662  LUMO = 0.866255850358
     k-point                  mo_energy
   0 ( 0.000  0.000  0.000)   [-2.09743246  0.65437536  0.65437536  0.65437536] [0.92810655 0.92810655 0.92810655 1.21929697 1.96956539 2.2088354
 2.2088354  2.2088354  2.76925643 2.76925643 2.76925643 4.43631415]
   1 ( 0.000 -0.000  0.500)   [-0.73576081 -0.48434404  0.49590652  0.49590652] [1.03100813 1.0764213  1.0764213  1.40805832 1.70985628 1.82468607
 1.9581247  1.9581247  2.97872063 2.97872063 5.12641887 9.48798775]
   2 (-0.000  0.500 -0.000)   [-0.7357608  -0.48434404  0.49590652  0.49590652] [1.03100813 1.0764213  1.0764213  1.40805832 1.70985628 1.82468607
 1.9581247  1.9581247  2.97872063 2.97872063 5.12641888 9.48798774]
   3 ( 0.000  0.500  0.500)   [-0.36961911 -0.36961911  0.27127343  0.27127343] [0.86625585 0.86625585 1.4642339  1.4642339  1.76124961 1.76124961
 2.34854142 2.34854142 3.18718961 3.18718963 7.08039857 7.08039857]
   4 ( 0.500  0.000  0.000)   [-0.73576081 -0.48434404  0.49590652  0.49590652] [1.03100813 1.0764213  1.0764213  1.40805832 1.70985628 1.82468607
 1.9581247  1.9581247  2.97872063 2.97872063 5.12641887 9.48798774]
   5 ( 0.500  0.000  0.500)   [-0.36961911 -0.36961911  0.27127343  0.27127343] [0.86625585 0.86625585 1.4642339  1.4642339  1.76124961 1.76124961
 2.34854142 2.34854142 3.18718966 3.18718973 7.08039857 7.08039857]
   6 ( 0.500  0.500  0.000)   [-0.36961911 -0.36961911  0.27127343  0.27127343] [0.86625585 0.86625585 1.4642339  1.4642339  1.76124961 1.76124961
 2.34854142 2.34854142 3.18718959 3.18718966 7.08039857 7.08039857]
   7 ( 0.500  0.500  0.500)   [-0.73576081 -0.48434404  0.49590652  0.49590652] [1.03100813 1.0764213  1.0764213  1.40805832 1.70985628 1.82468607
 1.9581247  1.9581247  2.97872063 2.97872063 5.12641887 9.48798774]
    CPU time for get_k_kpts: make_kpt ki>=kj (0,*)      0.73 sec, wall time      0.04 sec
    CPU time for get_k_kpts: make_kpt ki>=kj (1,*)      0.37 sec, wall time      0.03 sec
    CPU time for get_k_kpts: make_kpt ki>=kj (2,*)      0.25 sec, wall time      0.02 sec
    CPU time for get_k_kpts: make_kpt ki>=kj (3,*)      0.28 sec, wall time      0.02 sec
    CPU time for get_k_kpts: make_kpt ki>=kj (4,*)      0.39 sec, wall time      0.03 sec
    CPU time for get_k_kpts: make_kpt ki>=kj (5,*)      0.61 sec, wall time      0.05 sec
    CPU time for get_k_kpts: make_kpt ki>=kj (6,*)      0.48 sec, wall time      0.03 sec
    CPU time for get_k_kpts: make_kpt ki>=kj (7,*)      1.20 sec, wall time      0.11 sec
Monkhorst pack size [2 2 2] ew_eta 2.207401477096274 ew_cut 3.139573895692605
Ewald components = 1.25526422573201e-187, -1.24595001153108, 1.07264968814688
    CPU time for get_j pass 1      2.25 sec, wall time      0.15 sec
    CPU time for get_j pass 2      0.25 sec, wall time      0.02 sec
    CPU time for vj and vk      7.26 sec, wall time      0.54 sec
Ewald components = 8.65406046977517e-18, -40.1378042628034, 27.1066236158498
E1 = (4.362936368342347+5.069569685800626e-18j)  E_coul = (-2.3187241643085583-3.928066489235677e-18j)
cycle= 1 E= -10.9869684429199  delta_E= 1.66  |g|= 0.491  |ddm|= 46.4
    CPU time for cycle= 1      8.14 sec, wall time      0.60 sec
diis-norm(errvec)=0.663359
diis-c [-0.4400446+0.j  1.       +0.j]
HOMO = 0.373214440455  LUMO = 0.970509891785
     k-point                  mo_energy
   0 ( 0.000  0.000  0.000)   [-0.67832713  0.37321444  0.37321444  0.37321444] [1.01994078 1.01994078 1.01994078 1.40402741 1.99291207 2.22462152
 2.22462152 2.22462152 2.81682196 2.81682196 2.81682196 4.4518022 ]
   1 ( 0.000 -0.000  0.500)   [-0.39317559 -0.25226342  0.24525333  0.24525333] [1.14626863 1.14626863 1.18145203 1.44600524 1.74552771 1.87739991
 1.98858504 1.98858504 3.01236415 3.01236415 5.15871707 9.62557488]
   2 (-0.000  0.500 -0.000)   [-0.39317559 -0.25226342  0.24525333  0.24525333] [1.14626863 1.14626863 1.18145203 1.44600524 1.74552771 1.87739992
 1.98858504 1.98858504 3.01236415 3.01236415 5.1587171  9.62557487]
   3 ( 0.000  0.500  0.500)   [-0.23946106 -0.23946106  0.08137625  0.08137625] [0.97050989 0.97050989 1.55248369 1.55248369 1.81938016 1.81938016
 2.35797451 2.35797451 3.20361869 3.20361886 7.15523897 7.15523897]
   4 ( 0.500  0.000  0.000)   [-0.39317559 -0.25226342  0.24525333  0.24525333] [1.14626863 1.14626863 1.18145203 1.44600523 1.74552771 1.8773999
 1.98858504 1.98858504 3.01236415 3.01236415 5.15871707 9.62557487]
   5 ( 0.500  0.000  0.500)   [-0.23946106 -0.23946106  0.08137625  0.08137625] [0.97050989 0.97050989 1.55248369 1.5524837  1.81938016 1.81938016
 2.35797451 2.35797451 3.20361879 3.20361896 7.15523897 7.15523897]
   6 ( 0.500  0.500  0.000)   [-0.23946106 -0.23946106  0.08137625  0.08137625] [0.97050989 0.97050989 1.55248369 1.55248369 1.81938016 1.81938016
 2.35797451 2.35797451 3.20361872 3.2036189  7.15523897 7.15523897]
   7 ( 0.500  0.500  0.500)   [-0.39317559 -0.25226342  0.24525333  0.24525333] [1.14626863 1.14626863 1.18145203 1.44600524 1.74552771 1.87739991
 1.98858504 1.98858504 3.01236415 3.01236415 5.15871709 9.62557489]
    CPU time for get_k_kpts: make_kpt ki>=kj (0,*)      0.73 sec, wall time      0.03 sec
    CPU time for get_k_kpts: make_kpt ki>=kj (1,*)      0.80 sec, wall time      0.04 sec
    CPU time for get_k_kpts: make_kpt ki>=kj (2,*)      0.71 sec, wall time      0.03 sec
    CPU time for get_k_kpts: make_kpt ki>=kj (3,*)      0.72 sec, wall time      0.06 sec
    CPU time for get_k_kpts: make_kpt ki>=kj (4,*)      0.39 sec, wall time      0.04 sec
    CPU time for get_k_kpts: make_kpt ki>=kj (5,*)      0.40 sec, wall time      0.03 sec
    CPU time for get_k_kpts: make_kpt ki>=kj (6,*)      0.44 sec, wall time      0.04 sec
    CPU time for get_k_kpts: make_kpt ki>=kj (7,*)      0.48 sec, wall time      0.04 sec
Monkhorst pack size [2 2 2] ew_eta 2.207401477096274 ew_cut 3.139573895692605
Ewald components = 1.25526422573201e-187, -1.24595001153108, 1.07264968814688
    CPU time for get_j pass 1      1.83 sec, wall time      0.08 sec
    CPU time for get_j pass 2      0.27 sec, wall time      0.02 sec
    CPU time for vj and vk      7.40 sec, wall time      0.45 sec
Ewald components = 8.65406046977517e-18, -40.1378042628034, 27.1066236158498
E1 = (4.345232558812673-3.427791997461822e-18j)  E_coul = (-2.3095710415872674+2.185428962748269e-18j)
cycle= 2 E= -10.9955191297282  delta_E= -0.00855  |g|= 0.09  |ddm|= 10.6
    CPU time for cycle= 2      7.72 sec, wall time      0.47 sec
diis-norm(errvec)=0.121578
diis-c [-7.20048004e-04+0.00000000e+00j -2.17883863e-01-1.84261556e-27j
  1.21788386e+00+1.84261556e-27j]
HOMO = 0.374186382603  LUMO = 0.973936997031
     k-point                  mo_energy
   0 ( 0.000  0.000  0.000)   [-0.67480702  0.37418638  0.37418638  0.37418638] [1.02166094 1.02166094 1.02166094 1.41277223 1.99468456 2.22538378
 2.22538378 2.22538378 2.81898215 2.81898215 2.81898215 4.45255015]
   1 ( 0.000 -0.000  0.500)   [-0.39031496 -0.25131222  0.24577055  0.24577055] [1.14787676 1.14787676 1.18818053 1.44737911 1.74870466 1.88066187
 1.98994804 1.98994805 3.0145618  3.0145618  5.16040505 9.63244608]
   2 (-0.000  0.500 -0.000)   [-0.39031496 -0.25131222  0.24577055  0.24577055] [1.14787676 1.14787676 1.18818053 1.44737912 1.74870466 1.88066188
 1.98994805 1.98994805 3.0145618  3.0145618  5.16040507 9.63244607]
   3 ( 0.000  0.500  0.500)   [-0.23732058 -0.23732058  0.08102882  0.08102882] [0.973937   0.973937   1.55640004 1.55640004 1.82330151 1.82330151
 2.35923961 2.35923961 3.20445677 3.20445694 7.15900943 7.15900943]
   4 ( 0.500  0.000  0.000)   [-0.39031496 -0.25131222  0.24577055  0.24577055] [1.14787676 1.14787676 1.18818053 1.44737911 1.74870466 1.88066187
 1.98994805 1.98994805 3.0145618  3.0145618  5.16040504 9.63244607]
   5 ( 0.500  0.000  0.500)   [-0.23732058 -0.23732058  0.08102882  0.08102882] [0.973937   0.973937   1.55640004 1.55640004 1.82330151 1.82330151
 2.35923961 2.35923961 3.20445687 3.20445705 7.15900943 7.15900943]
   6 ( 0.500  0.500  0.000)   [-0.23732058 -0.23732058  0.08102882  0.08102882] [0.973937   0.973937   1.55640004 1.55640004 1.82330151 1.82330151
 2.35923961 2.35923961 3.2044568  3.20445699 7.15900943 7.15900943]
   7 ( 0.500  0.500  0.500)   [-0.39031496 -0.25131222  0.24577055  0.24577055] [1.14787676 1.14787676 1.18818053 1.44737911 1.74870466 1.88066188
 1.98994804 1.98994805 3.0145618  3.0145618  5.16040506 9.63244609]
    CPU time for get_k_kpts: make_kpt ki>=kj (0,*)      0.64 sec, wall time      0.02 sec
    CPU time for get_k_kpts: make_kpt ki>=kj (1,*)      0.62 sec, wall time      0.02 sec
    CPU time for get_k_kpts: make_kpt ki>=kj (2,*)      0.76 sec, wall time      0.03 sec
    CPU time for get_k_kpts: make_kpt ki>=kj (3,*)      0.60 sec, wall time      0.02 sec
    CPU time for get_k_kpts: make_kpt ki>=kj (4,*)      0.33 sec, wall time      0.03 sec
    CPU time for get_k_kpts: make_kpt ki>=kj (5,*)      0.38 sec, wall time      0.02 sec
    CPU time for get_k_kpts: make_kpt ki>=kj (6,*)      0.41 sec, wall time      0.03 sec
    CPU time for get_k_kpts: make_kpt ki>=kj (7,*)      0.50 sec, wall time      0.03 sec
Monkhorst pack size [2 2 2] ew_eta 2.207401477096274 ew_cut 3.139573895692605
Ewald components = 1.25526422573201e-187, -1.24595001153108, 1.07264968814688
    CPU time for get_j pass 1      2.65 sec, wall time      0.11 sec
    CPU time for get_j pass 2      0.24 sec, wall time      0.02 sec
    CPU time for vj and vk      7.53 sec, wall time      0.38 sec
Ewald components = 8.65406046977517e-18, -40.1378042628034, 27.1066236158498
E1 = (4.34397192256503+1.4367144963068684e-19j)  E_coul = (-2.308631899438633+3.2275806850116043e-19j)
cycle= 3 E= -10.9958406238272  delta_E= -0.000321  |g|= 0.00521  |ddm|= 2.04
    CPU time for cycle= 3      7.87 sec, wall time      0.40 sec
diis-norm(errvec)=0.00710361
diis-c [-3.16901922e-06-3.58732407e-43j  6.82555081e-02-1.33665951e-27j
 -4.00203552e-01+1.03944403e-26j  1.33194804e+00-9.05778076e-27j]
HOMO = 0.373960368567  LUMO = 0.973861342557
     k-point                  mo_energy
   0 ( 0.000  0.000  0.000)   [-0.67474468  0.37396037  0.37396037  0.37396037] [1.0213643  1.0213643  1.0213643  1.41275377 1.99466494 2.22525356
 2.22525356 2.22525356 2.81864304 2.81864304 2.81864304 4.45250968]
   1 ( 0.000 -0.000  0.500)   [-0.39010713 -0.25148165  0.24552596  0.24552596] [1.1476023  1.1476023  1.18820643 1.44723311 1.74835834 1.8803521
 1.98966956 1.98966956 3.0142905  3.0142905  5.16022778 9.6315765 ]
   2 (-0.000  0.500 -0.000)   [-0.39010713 -0.25148165  0.24552596  0.24552596] [1.1476023  1.1476023  1.18820643 1.44723312 1.74835834 1.88035211
 1.98966956 1.98966956 3.01429049 3.0142905  5.16022781 9.63157648]
   3 ( 0.000  0.500  0.500)   [-0.23724215 -0.23724215  0.08074443  0.08074443] [0.97386134 0.97386134 1.55594438 1.55594438 1.82287945 1.82287945
 2.35909552 2.35909552 3.20434557 3.20434574 7.15855013 7.15855013]
   4 ( 0.500  0.000  0.000)   [-0.39010713 -0.25148165  0.24552596  0.24552596] [1.1476023  1.1476023  1.18820643 1.44723311 1.74835834 1.8803521
 1.98966956 1.98966956 3.0142905  3.0142905  5.16022778 9.63157648]
   5 ( 0.500  0.000  0.500)   [-0.23724215 -0.23724215  0.08074443  0.08074443] [0.97386134 0.97386134 1.55594438 1.55594439 1.82287945 1.82287945
 2.35909552 2.35909552 3.20434567 3.20434584 7.15855013 7.15855013]
   6 ( 0.500  0.500  0.000)   [-0.23724215 -0.23724215  0.08074443  0.08074443] [0.97386134 0.97386134 1.55594438 1.55594439 1.82287945 1.82287945
 2.35909552 2.35909552 3.2043456  3.20434578 7.15855013 7.15855013]
   7 ( 0.500  0.500  0.500)   [-0.39010713 -0.25148165  0.24552596  0.24552596] [1.1476023  1.1476023  1.18820643 1.44723312 1.74835834 1.88035211
 1.98966956 1.98966956 3.01429049 3.0142905  5.16022779 9.6315765 ]
    CPU time for get_k_kpts: make_kpt ki>=kj (0,*)      0.78 sec, wall time      0.03 sec
    CPU time for get_k_kpts: make_kpt ki>=kj (1,*)      1.65 sec, wall time      0.07 sec
    CPU time for get_k_kpts: make_kpt ki>=kj (2,*)      0.38 sec, wall time      0.03 sec
    CPU time for get_k_kpts: make_kpt ki>=kj (3,*)      0.49 sec, wall time      0.04 sec
    CPU time for get_k_kpts: make_kpt ki>=kj (4,*)      0.52 sec, wall time      0.04 sec
    CPU time for get_k_kpts: make_kpt ki>=kj (5,*)      0.56 sec, wall time      0.05 sec
    CPU time for get_k_kpts: make_kpt ki>=kj (6,*)      0.49 sec, wall time      0.04 sec
    CPU time for get_k_kpts: make_kpt ki>=kj (7,*)      1.05 sec, wall time      0.08 sec
Monkhorst pack size [2 2 2] ew_eta 2.207401477096274 ew_cut 3.139573895692605
Ewald components = 1.25526422573201e-187, -1.24595001153108, 1.07264968814688
    CPU time for get_j pass 1      2.32 sec, wall time      0.17 sec
    CPU time for get_j pass 2      0.49 sec, wall time      0.03 sec
    CPU time for vj and vk      9.75 sec, wall time      0.65 sec
Ewald components = 8.65406046977517e-18, -40.1378042628034, 27.1066236158498
E1 = (4.3441789385678575+7.572428846724601e-18j)  E_coul = (-2.3088407191051803-8.575508951247936e-18j)
cycle= 4 E= -10.995842427491  delta_E= -1.8e-06  |g|= 0.000506  |ddm|= 0.131
    CPU time for cycle= 4     10.30 sec, wall time      0.69 sec
diis-norm(errvec)=0.000492895
diis-c [-1.35888571e-08+6.45718332e-42j -1.34796960e-02-8.64667660e-27j
  8.09301261e-02+4.99305619e-26j -3.26275476e-01-1.66483320e-25j
  1.25882505e+00+1.25199435e-25j]
HOMO = 0.373974357444  LUMO = 0.973857541956
     k-point                  mo_energy
   0 ( 0.000  0.000  0.000)   [-0.67478523  0.37397436  0.37397436  0.37397436] [1.021382   1.021382   1.021382   1.41279795 1.99468833 2.22525947
 2.22525948 2.22525948 2.81867545 2.81867545 2.81867545 4.45252205]
   1 ( 0.000 -0.000  0.500)   [-0.39010916 -0.2515234   0.24553959  0.24553959] [1.14761249 1.14761249 1.18823404 1.44722713 1.74840576 1.88039039
 1.9896917  1.9896917  3.0143154  3.0143154  5.16025637 9.63168185]
   2 (-0.000  0.500 -0.000)   [-0.39010916 -0.2515234   0.24553959  0.24553959] [1.14761249 1.14761249 1.18823404 1.44722713 1.74840576 1.8803904
 1.9896917  1.9896917  3.0143154  3.0143154  5.16025639 9.63168184]
   3 ( 0.000  0.500  0.500)   [-0.23725409 -0.23725409  0.08075497  0.08075497] [0.97385754 0.97385754 1.55597724 1.55597724 1.82292902 1.82292902
 2.35910283 2.35910283 3.20435791 3.20435808 7.15860855 7.15860855]
   4 ( 0.500  0.000  0.000)   [-0.39010916 -0.2515234   0.24553959  0.24553959] [1.14761249 1.14761249 1.18823404 1.44722713 1.74840576 1.88039038
 1.9896917  1.98969171 3.0143154  3.0143154  5.16025636 9.63168184]
   5 ( 0.500  0.000  0.500)   [-0.23725409 -0.23725409  0.08075497  0.08075497] [0.97385754 0.97385754 1.55597724 1.55597724 1.82292901 1.82292902
 2.35910283 2.35910283 3.20435801 3.20435818 7.15860855 7.15860855]
   6 ( 0.500  0.500  0.000)   [-0.23725409 -0.23725409  0.08075497  0.08075497] [0.97385754 0.97385754 1.55597724 1.55597724 1.82292901 1.82292902
 2.35910283 2.35910283 3.20435793 3.20435812 7.15860854 7.15860855]
   7 ( 0.500  0.500  0.500)   [-0.39010916 -0.2515234   0.24553959  0.24553959] [1.14761249 1.14761249 1.18823404 1.44722713 1.74840576 1.88039039
 1.9896917  1.9896917  3.0143154  3.0143154  5.16025638 9.63168186]
    CPU time for get_k_kpts: make_kpt ki>=kj (0,*)      1.76 sec, wall time      0.10 sec
    CPU time for get_k_kpts: make_kpt ki>=kj (1,*)      0.26 sec, wall time      0.02 sec
    CPU time for get_k_kpts: make_kpt ki>=kj (2,*)      0.30 sec, wall time      0.03 sec
    CPU time for get_k_kpts: make_kpt ki>=kj (3,*)      0.43 sec, wall time      0.04 sec
    CPU time for get_k_kpts: make_kpt ki>=kj (4,*)      0.49 sec, wall time      0.04 sec
    CPU time for get_k_kpts: make_kpt ki>=kj (5,*)      0.41 sec, wall time      0.03 sec
    CPU time for get_k_kpts: make_kpt ki>=kj (6,*)      0.43 sec, wall time      0.03 sec
    CPU time for get_k_kpts: make_kpt ki>=kj (7,*)      0.50 sec, wall time      0.04 sec
Monkhorst pack size [2 2 2] ew_eta 2.207401477096274 ew_cut 3.139573895692605
Ewald components = 1.25526422573201e-187, -1.24595001153108, 1.07264968814688
    CPU time for get_j pass 1      2.72 sec, wall time      0.12 sec
    CPU time for get_j pass 2      0.39 sec, wall time      0.03 sec
    CPU time for vj and vk      8.18 sec, wall time      0.53 sec
Ewald components = 8.65406046977517e-18, -40.1378042628034, 27.1066236158498
E1 = (4.344178498165502+1.3577101037706531e-17j)  E_coul = (-2.3088402916223334-1.4313433437558625e-17j)
cycle= 5 E= -10.9958424404105  delta_E= -1.29e-08  |g|= 3.03e-05  |ddm|= 0.0635
    CPU time for cycle= 5      8.66 sec, wall time      0.56 sec
HOMO = 0.373973779073  LUMO = 0.973857156222
     k-point                  mo_energy
   0 ( 0.000  0.000  0.000)   [-0.67477775  0.37397378  0.37397378  0.37397378] [1.02137968 1.02137968 1.02137968 1.41279387 1.99468404 2.22525822
 2.22525822 2.22525822 2.81867167 2.81867167 2.81867167 4.45252136]
   1 ( 0.000 -0.000  0.500)   [-0.39010491 -0.25151705  0.24553847  0.24553847] [1.14761065 1.14761065 1.18823189 1.44722572 1.74839798 1.88038522
 1.98968924 1.98968924 3.01431234 3.01431234 5.16025399 9.63167212]
   2 (-0.000  0.500 -0.000)   [-0.39010491 -0.25151705  0.24553847  0.24553847] [1.14761065 1.14761065 1.18823189 1.44722572 1.74839798 1.88038523
 1.98968924 1.98968924 3.01431234 3.01431234 5.16025402 9.63167211]
   3 ( 0.000  0.500  0.500)   [-0.23724958 -0.23724958  0.08075427  0.08075427] [0.97385716 0.97385716 1.55597251 1.55597251 1.82292174 1.82292174
 2.35910174 2.35910174 3.2043566  3.20435678 7.1586032  7.1586032 ]
   4 ( 0.500  0.000  0.000)   [-0.39010491 -0.25151705  0.24553847  0.24553847] [1.14761065 1.14761065 1.18823189 1.44722572 1.74839798 1.88038522
 1.98968924 1.98968924 3.01431234 3.01431234 5.16025399 9.63167211]
   5 ( 0.500  0.000  0.500)   [-0.23724958 -0.23724958  0.08075427  0.08075427] [0.97385716 0.97385716 1.55597251 1.55597252 1.82292174 1.82292174
 2.35910174 2.35910174 3.2043567  3.20435688 7.1586032  7.1586032 ]
   6 ( 0.500  0.500  0.000)   [-0.23724958 -0.23724958  0.08075427  0.08075427] [0.97385716 0.97385716 1.55597251 1.55597251 1.82292174 1.82292174
 2.35910174 2.35910174 3.20435663 3.20435682 7.1586032  7.1586032 ]
   7 ( 0.500  0.500  0.500)   [-0.39010491 -0.25151705  0.24553847  0.24553847] [1.14761065 1.14761065 1.18823189 1.44722572 1.74839798 1.88038523
 1.98968924 1.98968924 3.01431233 3.01431234 5.160254   9.63167213]
    CPU time for get_k_kpts: make_kpt ki>=kj (0,*)      1.40 sec, wall time      0.06 sec
    CPU time for get_k_kpts: make_kpt ki>=kj (1,*)      0.79 sec, wall time      0.03 sec
    CPU time for get_k_kpts: make_kpt ki>=kj (2,*)      0.34 sec, wall time      0.03 sec
    CPU time for get_k_kpts: make_kpt ki>=kj (3,*)      0.28 sec, wall time      0.02 sec
    CPU time for get_k_kpts: make_kpt ki>=kj (4,*)      0.29 sec, wall time      0.02 sec
    CPU time for get_k_kpts: make_kpt ki>=kj (5,*)      0.34 sec, wall time      0.02 sec
    CPU time for get_k_kpts: make_kpt ki>=kj (6,*)      1.05 sec, wall time      0.07 sec
    CPU time for get_k_kpts: make_kpt ki>=kj (7,*)      0.73 sec, wall time      0.06 sec
Monkhorst pack size [2 2 2] ew_eta 2.207401477096274 ew_cut 3.139573895692605
Ewald components = 1.25526422573201e-187, -1.24595001153108, 1.07264968814688
    CPU time for get_j pass 1      2.39 sec, wall time      0.14 sec
    CPU time for get_j pass 2      0.23 sec, wall time      0.02 sec
    CPU time for vj and vk      8.19 sec, wall time      0.51 sec
Ewald components = 8.65406046977517e-18, -40.1378042628034, 27.1066236158498
E1 = (4.34417949683589+1.368068845222624e-19j)  E_coul = (-2.3088412903226+7.164693428221315e-18j)
Extra cycle  E= -10.9958424404403  delta_E= -2.99e-11  |g|= 5.07e-06  |ddm|= 0.00126
    CPU time for scf_cycle   1087.59 sec, wall time    165.88 sec
    CPU time for SCF   1087.73 sec, wall time    165.91 sec
converged SCF energy = -10.9958424404403
Starting mo_k2gamma
Orthogonality error of MOs= 8.22e-11
Number of MOs with imaginary coefficients: 121 out of 128
Imaginary parts of Fock matrix: ||Im(F)||= 6.77e-10  max|Im(F)|= 1.50e-11
Error of MO energies: ||dE||= 8.79e-10  max|dE|= 5.48e-10
Imaginary part in gamma-point MOs: max|Im(C)|= 1.24e-10
arg.atm = [[ 4 20  1 23  0  0]
 [ 4 24  1 27  0  0]
 [ 4 28  1 31  0  0]
 [ 4 32  1 35  0  0]
 [ 4 36  1 39  0  0]
 [ 4 40  1 43  0  0]
 [ 4 44  1 47  0  0]
 [ 4 48  1 51  0  0]
 [ 4 52  1 55  0  0]
 [ 4 56  1 59  0  0]
 [ 4 60  1 63  0  0]
 [ 4 64  1 67  0  0]
 [ 4 68  1 71  0  0]
 [ 4 72  1 75  0  0]
 [ 4 76  1 79  0  0]
 [ 4 80  1 83  0  0]]
arg.bas = [[ 0  0  4  1  0 84 88  0]
 [ 0  1  4  1  0 92 96  0]
 [ 1  0  4  1  0 84 88  0]
 [ 1  1  4  1  0 92 96  0]
 [ 2  0  4  1  0 84 88  0]
 [ 2  1  4  1  0 92 96  0]
 [ 3  0  4  1  0 84 88  0]
 [ 3  1  4  1  0 92 96  0]
 [ 4  0  4  1  0 84 88  0]
 [ 4  1  4  1  0 92 96  0]
 [ 5  0  4  1  0 84 88  0]
 [ 5  1  4  1  0 92 96  0]
 [ 6  0  4  1  0 84 88  0]
 [ 6  1  4  1  0 92 96  0]
 [ 7  0  4  1  0 84 88  0]
 [ 7  1  4  1  0 92 96  0]
 [ 8  0  4  1  0 84 88  0]
 [ 8  1  4  1  0 92 96  0]
 [ 9  0  4  1  0 84 88  0]
 [ 9  1  4  1  0 92 96  0]
 [10  0  4  1  0 84 88  0]
 [10  1  4  1  0 92 96  0]
 [11  0  4  1  0 84 88  0]
 [11  1  4  1  0 92 96  0]
 [12  0  4  1  0 84 88  0]
 [12  1  4  1  0 92 96  0]
 [13  0  4  1  0 84 88  0]
 [13  1  4  1  0 92 96  0]
 [14  0  4  1  0 84 88  0]
 [14  1  4  1  0 92 96  0]
 [15  0  4  1  0 84 88  0]
 [15  1  4  1  0 92 96  0]]
arg.env = [ 0.          0.          0.          0.          0.          0.
  0.          0.          0.          0.          0.          0.
  0.          0.          0.          0.          0.          0.
  0.          0.          0.          0.          0.          0.
  1.65351036  1.65351036  1.65351036  0.          3.30702072  0.
  3.30702072  0.          4.96053108  1.65351036  4.96053108  0.
  0.          3.30702072  3.30702072  0.          1.65351036  4.96053108
  4.96053108  0.          3.30702072  3.30702072  6.61404144  0.
  4.96053108  4.96053108  8.26755179  0.          3.30702072  3.30702072
  0.          0.          4.96053108  4.96053108  1.65351036  0.
  6.61404144  3.30702072  3.30702072  0.          8.26755179  4.96053108
  4.96053108  0.          3.30702072  6.61404144  3.30702072  0.
  4.96053108  8.26755179  4.96053108  0.          6.61404144  6.61404144
  6.61404144  0.          8.26755179  8.26755179  8.26755179  0.
  4.33623764  1.28818385  0.40377671  0.11878777  1.13179715 -0.08939889
 -0.8807207  -0.20266289  4.33623764  1.28818385  0.40377671  0.11878777
 -1.60299215 -1.11123874 -0.44247981 -0.08255916]
ecpbas  = []
arg.atm = [[ 4 20  1 23  0  0]
 [ 4 24  1 27  0  0]
 [ 4 28  1 31  0  0]
 [ 4 32  1 35  0  0]
 [ 4 36  1 39  0  0]
 [ 4 40  1 43  0  0]
 [ 4 44  1 47  0  0]
 [ 4 48  1 51  0  0]
 [ 4 52  1 55  0  0]
 [ 4 56  1 59  0  0]
 [ 4 60  1 63  0  0]
 [ 4 64  1 67  0  0]
 [ 4 68  1 71  0  0]
 [ 4 72  1 75  0  0]
 [ 4 76  1 79  0  0]
 [ 4 80  1 83  0  0]]
arg.bas = [[ 0  0  4  1  0 84 88  0]
 [ 0  1  4  1  0 92 96  0]
 [ 1  0  4  1  0 84 88  0]
 [ 1  1  4  1  0 92 96  0]
 [ 2  0  4  1  0 84 88  0]
 [ 2  1  4  1  0 92 96  0]
 [ 3  0  4  1  0 84 88  0]
 [ 3  1  4  1  0 92 96  0]
 [ 4  0  4  1  0 84 88  0]
 [ 4  1  4  1  0 92 96  0]
 [ 5  0  4  1  0 84 88  0]
 [ 5  1  4  1  0 92 96  0]
 [ 6  0  4  1  0 84 88  0]
 [ 6  1  4  1  0 92 96  0]
 [ 7  0  4  1  0 84 88  0]
 [ 7  1  4  1  0 92 96  0]
 [ 8  0  4  1  0 84 88  0]
 [ 8  1  4  1  0 92 96  0]
 [ 9  0  4  1  0 84 88  0]
 [ 9  1  4  1  0 92 96  0]
 [10  0  4  1  0 84 88  0]
 [10  1  4  1  0 92 96  0]
 [11  0  4  1  0 84 88  0]
 [11  1  4  1  0 92 96  0]
 [12  0  4  1  0 84 88  0]
 [12  1  4  1  0 92 96  0]
 [13  0  4  1  0 84 88  0]
 [13  1  4  1  0 92 96  0]
 [14  0  4  1  0 84 88  0]
 [14  1  4  1  0 92 96  0]
 [15  0  4  1  0 84 88  0]
 [15  1  4  1  0 92 96  0]]
arg.env = [ 0.          0.          0.          0.          0.          0.
  0.          0.          0.          0.          0.          0.
  0.          0.          0.          0.          0.          0.
  0.          0.          0.          0.          0.          0.
  1.65351036  1.65351036  1.65351036  0.          3.30702072  0.
  3.30702072  0.          4.96053108  1.65351036  4.96053108  0.
  0.          3.30702072  3.30702072  0.          1.65351036  4.96053108
  4.96053108  0.          3.30702072  3.30702072  6.61404144  0.
  4.96053108  4.96053108  8.26755179  0.          3.30702072  3.30702072
  0.          0.          4.96053108  4.96053108  1.65351036  0.
  6.61404144  3.30702072  3.30702072  0.          8.26755179  4.96053108
  4.96053108  0.          3.30702072  6.61404144  3.30702072  0.
  4.96053108  8.26755179  4.96053108  0.          6.61404144  6.61404144
  6.61404144  0.          8.26755179  8.26755179  8.26755179  0.
  4.33623764  1.28818385  0.40377671  0.11878777  1.13179715 -0.08939889
 -0.8807207  -0.20266289  4.33623764  1.28818385  0.40377671  0.11878777
 -1.60299215 -1.11123874 -0.44247981 -0.08255916]
ecpbas  = []

******** <class 'pyscf.pbc.mp.mp2.RMP2'> ********
nocc = 32, nmo = 36
frozen orbitals [36, 37, 38, 39, 40, 41, 42, 43, 44, 45, 46, 47, 48, 49, 50, 51, 52, 53, 54, 55, 56, 57, 58, 59, 60, 61, 62, 63, 64, 65, 66, 67, 68, 69, 70, 71, 72, 73, 74, 75, 76, 77, 78, 79, 80, 81, 82, 83, 84, 85, 86, 87, 88, 89, 90, 91, 92, 93, 94, 95, 96, 97, 98, 99, 100, 101, 102, 103, 104, 105, 106, 107, 108, 109, 110, 111, 112, 113, 114, 115, 116, 117, 118, 119, 120, 121, 122, 123, 124, 125, 126, 127]
max_memory 64000 MB (current use 562 MB)
E(RMP2) = -88.0283455977466  E_corr = -0.0616060742238479

******** <class 'pyscf.pbc.mp.mp2.RMP2'> ********
nocc = 4, nmo = 100
frozen orbitals [0, 1, 2, 3, 4, 5, 6, 7, 8, 9, 10, 11, 12, 13, 14, 15, 16, 17, 18, 19, 20, 21, 22, 23, 24, 25, 26, 27]
max_memory 64000 MB (current use 570 MB)
E(RMP2) = -88.0571708194324  E_corr = -0.0904312959095761
DF FOUND: %r <pyscf.pbc.df.fft.FFTDF object at 0x7fa1e4d49b80>
Monkhorst pack size [1 1 1] ew_eta 2.207401477096274 ew_cut 3.139573895692605
Ewald components = 1.25526422573201e-187, -1.24595001153108, 1.07264968814688

******** <class 'pyscf.cc.dfccsd.RCCSD'> ********
CC2 = 0
CCSD nocc = 23, nmo = 77
frozen orbitals [0, 1, 2, 3, 4, 5, 6, 7, 8, 86, 87, 88, 89, 90, 91, 92, 93, 94, 95, 96, 97, 98, 99, 100, 101, 102, 103, 104, 105, 106, 107, 108, 109, 110, 111, 112, 113, 114, 115, 116, 117, 118, 119, 120, 121, 122, 123, 124, 125, 126, 127]
max_cycle = 50
direct = 0
conv_tol = 1e-07
conv_tol_normt = 1e-05
diis_space = 6
diis_start_cycle = 0
diis_start_energy_diff = 1e+09
max_memory 64000 MB (current use 659 MB)
Init t2, MP2 energy = -88.4653497461687  E_corr(MP2) -0.498610222645951
    CPU time for init mp2      0.32 sec, wall time      0.02 sec
Init E_corr(CCSD) = -0.498610222645959
    CPU time for vvvv [0:14,0:14]      1.27 sec, wall time      0.04 sec
    CPU time for vvvv [14:28,0:14]      1.12 sec, wall time      0.04 sec
    CPU time for vvvv [14:28,14:28]      0.48 sec, wall time      0.03 sec
    CPU time for vvvv [28:42,0:14]      0.49 sec, wall time      0.03 sec
    CPU time for vvvv [28:42,14:28]      0.47 sec, wall time      0.03 sec
    CPU time for vvvv [28:42,28:42]      0.43 sec, wall time      0.03 sec
    CPU time for vvvv [42:54,0:14]      0.44 sec, wall time      0.03 sec
    CPU time for vvvv [42:54,14:28]      0.43 sec, wall time      0.03 sec
    CPU time for vvvv [42:54,28:42]      0.42 sec, wall time      0.03 sec
    CPU time for vvvv [42:54,42:54]      0.34 sec, wall time      0.02 sec
    CPU time for vvvv      5.97 sec, wall time      0.31 sec
max_memory 63323 MB,  nocc,nvir = 23,54  blksize = 54
    CPU time for vovv [0:54]      2.21 sec, wall time      0.42 sec
    CPU time for ovvv      2.27 sec, wall time      0.45 sec
max_memory 63323 MB,  nocc,nvir = 23,54  blksize = 54
    CPU time for voov [0:54]      3.00 sec, wall time      0.76 sec
    CPU time for update t1 t2     11.71 sec, wall time      1.61 sec
DIIS for step 0
cycle = 1  E_corr(CCSD) = -0.546043473303048  dE = -0.0474332507  norm(t1,t2) = 0.0587438
    CPU time for CCSD iter     12.61 sec, wall time      1.66 sec
    CPU time for vvvv [0:14,0:14]      1.51 sec, wall time      0.05 sec
    CPU time for vvvv [14:28,0:14]      1.19 sec, wall time      0.04 sec
    CPU time for vvvv [14:28,14:28]      0.43 sec, wall time      0.03 sec
    CPU time for vvvv [28:42,0:14]      0.45 sec, wall time      0.03 sec
    CPU time for vvvv [28:42,14:28]      0.44 sec, wall time      0.03 sec
    CPU time for vvvv [28:42,28:42]      0.40 sec, wall time      0.03 sec
    CPU time for vvvv [42:54,0:14]      0.39 sec, wall time      0.02 sec
    CPU time for vvvv [42:54,14:28]      0.59 sec, wall time      0.04 sec
    CPU time for vvvv [42:54,28:42]      0.44 sec, wall time      0.03 sec
    CPU time for vvvv [42:54,42:54]      0.33 sec, wall time      0.02 sec
    CPU time for vvvv      6.26 sec, wall time      0.32 sec
max_memory 63189 MB,  nocc,nvir = 23,54  blksize = 54
    CPU time for vovv [0:54]      2.29 sec, wall time      0.38 sec
    CPU time for ovvv      2.35 sec, wall time      0.40 sec
max_memory 63227 MB,  nocc,nvir = 23,54  blksize = 54
    CPU time for voov [0:54]      3.18 sec, wall time      0.73 sec
    CPU time for update t1 t2     12.18 sec, wall time      1.55 sec
diis-c [-4.35623684e-04  1.00000000e+00]
DIIS for step 1
cycle = 2  E_corr(CCSD) = -0.561911161760085  dE = -0.0158676885  norm(t1,t2) = 0.0208716
    CPU time for CCSD iter     13.91 sec, wall time      1.65 sec
    CPU time for vvvv [0:14,0:14]      1.29 sec, wall time      0.04 sec
    CPU time for vvvv [14:28,0:14]      0.75 sec, wall time      0.04 sec
    CPU time for vvvv [14:28,14:28]      0.46 sec, wall time      0.03 sec
    CPU time for vvvv [28:42,0:14]      0.49 sec, wall time      0.03 sec
    CPU time for vvvv [28:42,14:28]      0.48 sec, wall time      0.03 sec
    CPU time for vvvv [28:42,28:42]      0.44 sec, wall time      0.03 sec
    CPU time for vvvv [42:54,0:14]      0.47 sec, wall time      0.03 sec
    CPU time for vvvv [42:54,14:28]      0.44 sec, wall time      0.03 sec
    CPU time for vvvv [42:54,28:42]      0.42 sec, wall time      0.03 sec
    CPU time for vvvv [42:54,42:54]      0.35 sec, wall time      0.02 sec
    CPU time for vvvv      5.73 sec, wall time      0.31 sec
max_memory 63143 MB,  nocc,nvir = 23,54  blksize = 54
    CPU time for vovv [0:54]      2.25 sec, wall time      0.38 sec
    CPU time for ovvv      2.31 sec, wall time      0.41 sec
max_memory 63145 MB,  nocc,nvir = 23,54  blksize = 54
    CPU time for voov [0:54]      3.12 sec, wall time      0.83 sec
    CPU time for update t1 t2     11.81 sec, wall time      1.71 sec
diis-c [-1.26706603e-05 -7.04138652e-01  1.70413865e+00]
DIIS for step 2
cycle = 3  E_corr(CCSD) = -0.570497604652587  dE = -0.00858644289  norm(t1,t2) = 0.00921308
    CPU time for CCSD iter     14.02 sec, wall time      1.85 sec
    CPU time for vvvv [0:14,0:14]      1.56 sec, wall time      0.12 sec
    CPU time for vvvv [14:28,0:14]      3.09 sec, wall time      0.25 sec
    CPU time for vvvv [14:28,14:28]      0.48 sec, wall time      0.03 sec
    CPU time for vvvv [28:42,0:14]      0.61 sec, wall time      0.04 sec
    CPU time for vvvv [28:42,14:28]      0.60 sec, wall time      0.04 sec
    CPU time for vvvv [28:42,28:42]      0.58 sec, wall time      0.04 sec
    CPU time for vvvv [42:54,0:14]      0.61 sec, wall time      0.04 sec
    CPU time for vvvv [42:54,14:28]      0.58 sec, wall time      0.04 sec
    CPU time for vvvv [42:54,28:42]      0.57 sec, wall time      0.04 sec
    CPU time for vvvv [42:54,42:54]      0.48 sec, wall time      0.03 sec
    CPU time for vvvv      9.30 sec, wall time      0.66 sec
max_memory 63077 MB,  nocc,nvir = 23,54  blksize = 54
    CPU time for vovv [0:54]      2.39 sec, wall time      0.53 sec
    CPU time for ovvv      2.47 sec, wall time      0.57 sec
max_memory 63077 MB,  nocc,nvir = 23,54  blksize = 54
    CPU time for voov [0:54]      2.98 sec, wall time      0.71 sec
    CPU time for update t1 t2     15.18 sec, wall time      2.04 sec
diis-c [-1.04560725e-06  2.70739723e-01 -7.46076756e-01  1.47533703e+00]
DIIS for step 3
cycle = 4  E_corr(CCSD) = -0.570759833179577  dE = -0.000262228527  norm(t1,t2) = 0.00158937
    CPU time for CCSD iter     16.94 sec, wall time      2.14 sec
    CPU time for vvvv [0:14,0:14]      1.88 sec, wall time      0.10 sec
    CPU time for vvvv [14:28,0:14]      0.48 sec, wall time      0.03 sec
    CPU time for vvvv [14:28,14:28]      0.48 sec, wall time      0.03 sec
    CPU time for vvvv [28:42,0:14]      0.48 sec, wall time      0.03 sec
    CPU time for vvvv [28:42,14:28]      0.47 sec, wall time      0.03 sec
    CPU time for vvvv [28:42,28:42]      0.46 sec, wall time      0.03 sec
    CPU time for vvvv [42:54,0:14]      0.44 sec, wall time      0.03 sec
    CPU time for vvvv [42:54,14:28]      0.45 sec, wall time      0.03 sec
    CPU time for vvvv [42:54,28:42]      0.45 sec, wall time      0.03 sec
    CPU time for vvvv [42:54,42:54]      0.37 sec, wall time      0.02 sec
    CPU time for vvvv      6.07 sec, wall time      0.37 sec
max_memory 63011 MB,  nocc,nvir = 23,54  blksize = 54
    CPU time for vovv [0:54]      2.48 sec, wall time      0.40 sec
    CPU time for ovvv      2.57 sec, wall time      0.42 sec
max_memory 63038 MB,  nocc,nvir = 23,54  blksize = 54
    CPU time for voov [0:54]      3.33 sec, wall time      0.76 sec
    CPU time for update t1 t2     12.50 sec, wall time      1.66 sec
diis-c [-7.15923102e-08  2.67957633e-02 -5.34854377e-02 -1.50715367e-01
  1.17740504e+00]
DIIS for step 4
cycle = 5  E_corr(CCSD) = -0.570698458998127  dE = 6.13741814e-05  norm(t1,t2) = 0.000376052
    CPU time for CCSD iter     13.24 sec, wall time      1.70 sec
    CPU time for vvvv [0:14,0:14]      1.21 sec, wall time      0.04 sec
    CPU time for vvvv [14:28,0:14]      1.19 sec, wall time      0.04 sec
    CPU time for vvvv [14:28,14:28]      0.65 sec, wall time      0.03 sec
    CPU time for vvvv [28:42,0:14]      0.54 sec, wall time      0.03 sec
    CPU time for vvvv [28:42,14:28]      0.54 sec, wall time      0.03 sec
    CPU time for vvvv [28:42,28:42]      0.43 sec, wall time      0.03 sec
    CPU time for vvvv [42:54,0:14]      0.45 sec, wall time      0.03 sec
    CPU time for vvvv [42:54,14:28]      0.41 sec, wall time      0.03 sec
    CPU time for vvvv [42:54,28:42]      0.45 sec, wall time      0.03 sec
    CPU time for vvvv [42:54,42:54]      0.34 sec, wall time      0.02 sec
    CPU time for vvvv      6.31 sec, wall time      0.32 sec
max_memory 62947 MB,  nocc,nvir = 23,54  blksize = 54
    CPU time for vovv [0:54]      2.27 sec, wall time      0.40 sec
    CPU time for ovvv      2.33 sec, wall time      0.43 sec
max_memory 62972 MB,  nocc,nvir = 23,54  blksize = 54
    CPU time for voov [0:54]      2.91 sec, wall time      0.73 sec
    CPU time for update t1 t2     11.99 sec, wall time      1.58 sec
diis-c [-3.05608901e-09 -2.58111467e-02  6.50179419e-02 -2.92203856e-02
 -4.86168559e-01  1.47618215e+00]
DIIS for step 5
cycle = 6  E_corr(CCSD) = -0.570712717815702  dE = -1.42588176e-05  norm(t1,t2) = 0.000109871
    CPU time for CCSD iter     13.17 sec, wall time      1.65 sec
    CPU time for vvvv [0:14,0:14]      1.26 sec, wall time      0.04 sec
    CPU time for vvvv [14:28,0:14]      1.07 sec, wall time      0.04 sec
    CPU time for vvvv [14:28,14:28]      0.51 sec, wall time      0.03 sec
    CPU time for vvvv [28:42,0:14]      0.52 sec, wall time      0.03 sec
    CPU time for vvvv [28:42,14:28]      0.50 sec, wall time      0.03 sec
    CPU time for vvvv [28:42,28:42]      0.46 sec, wall time      0.03 sec
    CPU time for vvvv [42:54,0:14]      0.41 sec, wall time      0.03 sec
    CPU time for vvvv [42:54,14:28]      0.41 sec, wall time      0.03 sec
    CPU time for vvvv [42:54,28:42]      0.41 sec, wall time      0.03 sec
    CPU time for vvvv [42:54,42:54]      0.34 sec, wall time      0.02 sec
    CPU time for vvvv      5.98 sec, wall time      0.31 sec
max_memory 62922 MB,  nocc,nvir = 23,54  blksize = 54
    CPU time for vovv [0:54]      2.23 sec, wall time      0.39 sec
    CPU time for ovvv      2.30 sec, wall time      0.41 sec
max_memory 62923 MB,  nocc,nvir = 23,54  blksize = 54
    CPU time for voov [0:54]      2.75 sec, wall time      0.62 sec
    CPU time for update t1 t2     11.48 sec, wall time      1.45 sec
diis-c [-1.64555334e-10  9.75764166e-03 -2.52584998e-02  1.89551127e-02
  1.48180636e-01 -5.94926085e-01  1.44329119e+00]
DIIS for step 6
cycle = 7  E_corr(CCSD) = -0.570711658726773  dE = 1.05908893e-06  norm(t1,t2) = 2.21829e-05
    CPU time for CCSD iter     12.47 sec, wall time      1.51 sec
    CPU time for vvvv [0:14,0:14]      1.53 sec, wall time      0.05 sec
    CPU time for vvvv [14:28,0:14]      1.12 sec, wall time      0.04 sec
    CPU time for vvvv [14:28,14:28]      0.50 sec, wall time      0.03 sec
    CPU time for vvvv [28:42,0:14]      0.46 sec, wall time      0.03 sec
    CPU time for vvvv [28:42,14:28]      0.45 sec, wall time      0.03 sec
    CPU time for vvvv [28:42,28:42]      0.41 sec, wall time      0.03 sec
    CPU time for vvvv [42:54,0:14]      0.40 sec, wall time      0.02 sec
    CPU time for vvvv [42:54,14:28]      0.39 sec, wall time      0.02 sec
    CPU time for vvvv [42:54,28:42]      0.39 sec, wall time      0.02 sec
    CPU time for vvvv [42:54,42:54]      0.32 sec, wall time      0.02 sec
    CPU time for vvvv      6.03 sec, wall time      0.31 sec
max_memory 62884 MB,  nocc,nvir = 23,54  blksize = 54
    CPU time for vovv [0:54]      2.23 sec, wall time      0.38 sec
    CPU time for ovvv      2.30 sec, wall time      0.41 sec
max_memory 62911 MB,  nocc,nvir = 23,54  blksize = 54
    CPU time for voov [0:54]      3.39 sec, wall time      0.71 sec
    CPU time for update t1 t2     12.25 sec, wall time      1.54 sec
diis-c [-1.27016504e-11  1.18943217e+00  5.30202636e-05 -6.99352105e-04
  4.24665198e-03  4.99073591e-03 -1.98023223e-01]
DIIS for step 7
cycle = 8  E_corr(CCSD) = -0.570711470493885  dE = 1.88232888e-07  norm(t1,t2) = 4.71196e-06
    CPU time for CCSD iter     13.23 sec, wall time      1.59 sec
    CPU time for vvvv [0:14,0:14]      2.62 sec, wall time      0.11 sec
    CPU time for vvvv [14:28,0:14]      0.52 sec, wall time      0.03 sec
    CPU time for vvvv [14:28,14:28]      0.47 sec, wall time      0.03 sec
    CPU time for vvvv [28:42,0:14]      0.49 sec, wall time      0.03 sec
    CPU time for vvvv [28:42,14:28]      0.49 sec, wall time      0.03 sec
    CPU time for vvvv [28:42,28:42]      0.46 sec, wall time      0.03 sec
    CPU time for vvvv [42:54,0:14]      0.44 sec, wall time      0.03 sec
    CPU time for vvvv [42:54,14:28]      0.45 sec, wall time      0.03 sec
    CPU time for vvvv [42:54,28:42]      0.44 sec, wall time      0.03 sec
    CPU time for vvvv [42:54,42:54]      0.38 sec, wall time      0.02 sec
    CPU time for vvvv      6.86 sec, wall time      0.37 sec
max_memory 62872 MB,  nocc,nvir = 23,54  blksize = 54
    CPU time for vovv [0:54]      2.28 sec, wall time      0.39 sec
    CPU time for ovvv      2.37 sec, wall time      0.42 sec
max_memory 62904 MB,  nocc,nvir = 23,54  blksize = 54
    CPU time for voov [0:54]      3.33 sec, wall time      0.72 sec
    CPU time for update t1 t2     13.03 sec, wall time      1.61 sec
diis-c [-9.87484195e-13 -3.21655166e-01  1.30774434e+00  1.25204637e-04
 -1.84745039e-03  5.84818904e-03  9.78488226e-03]
DIIS for step 8
cycle = 9  E_corr(CCSD) = -0.570711549151612  dE = -7.86577267e-08  norm(t1,t2) = 1.37309e-06
    CPU time for CCSD iter     14.33 sec, wall time      1.68 sec
    CPU time for CCSD    123.92 sec, wall time     15.42 sec
RCCSD converged
E(RCCSD) = -88.5374510726744  E_corr = -0.5707115491516117
DF FOUND: %r <pyscf.pbc.df.fft.FFTDF object at 0x7fa1e4d49b80>
Monkhorst pack size [1 1 1] ew_eta 2.207401477096274 ew_cut 3.139573895692605
Ewald components = 1.25526422573201e-187, -1.24595001153108, 1.07264968814688

******** <class 'pyscf.cc.dfccsd.RCCSD'> ********
CC2 = 0
CCSD nocc = 16, nmo = 52
frozen orbitals [0, 1, 2, 3, 4, 5, 6, 7, 8, 9, 10, 11, 12, 13, 14, 15, 68, 69, 70, 71, 72, 73, 74, 75, 76, 77, 78, 79, 80, 81, 82, 83, 84, 85, 86, 87, 88, 89, 90, 91, 92, 93, 94, 95, 96, 97, 98, 99, 100, 101, 102, 103, 104, 105, 106, 107, 108, 109, 110, 111, 112, 113, 114, 115, 116, 117, 118, 119, 120, 121, 122, 123, 124, 125, 126, 127]
max_cycle = 50
direct = 0
conv_tol = 1e-07
conv_tol_normt = 1e-05
diis_space = 6
diis_start_cycle = 0
diis_start_energy_diff = 1e+09
max_memory 64000 MB (current use 1136 MB)
Init E_corr(CCSD) = -0.432337395538184
    CPU time for vvvv [0:9,0:9]      2.59 sec, wall time      0.09 sec
    CPU time for vvvv [9:18,0:9]      0.40 sec, wall time      0.01 sec
    CPU time for vvvv [9:18,9:18]      0.22 sec, wall time      0.01 sec
    CPU time for vvvv [18:27,0:9]      0.21 sec, wall time      0.01 sec
    CPU time for vvvv [18:27,9:18]      0.19 sec, wall time      0.01 sec
    CPU time for vvvv [18:27,18:27]      0.19 sec, wall time      0.01 sec
    CPU time for vvvv [27:36,0:9]      0.19 sec, wall time      0.01 sec
    CPU time for vvvv [27:36,9:18]      0.19 sec, wall time      0.01 sec
    CPU time for vvvv [27:36,18:27]      0.18 sec, wall time      0.01 sec
    CPU time for vvvv [27:36,27:36]      0.17 sec, wall time      0.01 sec
    CPU time for vvvv      4.59 sec, wall time      0.21 sec
max_memory 62863 MB,  nocc,nvir = 16,36  blksize = 36
    CPU time for vovv [0:36]      0.66 sec, wall time      0.06 sec
    CPU time for ovvv      0.70 sec, wall time      0.07 sec
max_memory 62863 MB,  nocc,nvir = 16,36  blksize = 36
    CPU time for voov [0:36]      0.83 sec, wall time      0.16 sec
    CPU time for update t1 t2      6.28 sec, wall time      0.47 sec
DIIS for step 0
cycle = 1  E_corr(CCSD) = -0.424195304987006  dE = 0.00814209055  norm(t1,t2) = 0.0270316
    CPU time for CCSD iter      7.01 sec, wall time      0.51 sec
    CPU time for vvvv [0:9,0:9]      3.13 sec, wall time      0.13 sec
    CPU time for vvvv [9:18,0:9]      0.15 sec, wall time      0.01 sec
    CPU time for vvvv [9:18,9:18]      0.13 sec, wall time      0.01 sec
    CPU time for vvvv [18:27,0:9]      0.15 sec, wall time      0.01 sec
    CPU time for vvvv [18:27,9:18]      0.14 sec, wall time      0.01 sec
    CPU time for vvvv [18:27,18:27]      0.13 sec, wall time      0.01 sec
    CPU time for vvvv [27:36,0:9]      0.14 sec, wall time      0.01 sec
    CPU time for vvvv [27:36,9:18]      0.14 sec, wall time      0.01 sec
    CPU time for vvvv [27:36,18:27]      0.18 sec, wall time      0.01 sec
    CPU time for vvvv [27:36,27:36]      0.14 sec, wall time      0.01 sec
    CPU time for vvvv      4.48 sec, wall time      0.22 sec
max_memory 62863 MB,  nocc,nvir = 16,36  blksize = 36
    CPU time for vovv [0:36]      0.52 sec, wall time      0.05 sec
    CPU time for ovvv      0.57 sec, wall time      0.06 sec
max_memory 62863 MB,  nocc,nvir = 16,36  blksize = 36
    CPU time for voov [0:36]      0.88 sec, wall time      0.14 sec
    CPU time for update t1 t2      6.07 sec, wall time      0.44 sec
diis-c [-4.33773133e-05  1.00000000e+00]
DIIS for step 1
cycle = 2  E_corr(CCSD) = -0.422454001605334  dE = 0.00174130338  norm(t1,t2) = 0.00658615
    CPU time for CCSD iter      6.48 sec, wall time      0.46 sec
    CPU time for vvvv [0:9,0:9]      0.38 sec, wall time      0.01 sec
    CPU time for vvvv [9:18,0:9]      0.37 sec, wall time      0.01 sec
    CPU time for vvvv [9:18,9:18]      0.42 sec, wall time      0.01 sec
    CPU time for vvvv [18:27,0:9]      0.35 sec, wall time      0.01 sec
    CPU time for vvvv [18:27,9:18]      0.35 sec, wall time      0.01 sec
    CPU time for vvvv [18:27,18:27]      0.33 sec, wall time      0.01 sec
    CPU time for vvvv [27:36,0:9]      0.35 sec, wall time      0.01 sec
    CPU time for vvvv [27:36,9:18]      0.35 sec, wall time      0.01 sec
    CPU time for vvvv [27:36,18:27]      0.30 sec, wall time      0.01 sec
    CPU time for vvvv [27:36,27:36]      0.17 sec, wall time      0.01 sec
    CPU time for vvvv      3.39 sec, wall time      0.12 sec
max_memory 62863 MB,  nocc,nvir = 16,36  blksize = 36
    CPU time for vovv [0:36]      0.53 sec, wall time      0.05 sec
    CPU time for ovvv      0.58 sec, wall time      0.06 sec
max_memory 62863 MB,  nocc,nvir = 16,36  blksize = 36
    CPU time for voov [0:36]      0.82 sec, wall time      0.15 sec
    CPU time for update t1 t2      4.91 sec, wall time      0.35 sec
diis-c [-8.58158341e-07 -4.18659005e-01  1.41865901e+00]
DIIS for step 2
cycle = 3  E_corr(CCSD) = -0.421747598216577  dE = 0.000706403389  norm(t1,t2) = 0.00213568
    CPU time for CCSD iter      5.31 sec, wall time      0.37 sec
    CPU time for vvvv [0:9,0:9]      3.28 sec, wall time      0.12 sec
    CPU time for vvvv [9:18,0:9]      0.17 sec, wall time      0.01 sec
    CPU time for vvvv [9:18,9:18]      0.16 sec, wall time      0.01 sec
    CPU time for vvvv [18:27,0:9]      0.17 sec, wall time      0.01 sec
    CPU time for vvvv [18:27,9:18]      0.16 sec, wall time      0.01 sec
    CPU time for vvvv [18:27,18:27]      0.16 sec, wall time      0.01 sec
    CPU time for vvvv [27:36,0:9]      0.16 sec, wall time      0.01 sec
    CPU time for vvvv [27:36,9:18]      0.17 sec, wall time      0.01 sec
    CPU time for vvvv [27:36,18:27]      0.20 sec, wall time      0.01 sec
    CPU time for vvvv [27:36,27:36]      0.16 sec, wall time      0.01 sec
    CPU time for vvvv      4.82 sec, wall time      0.21 sec
max_memory 62863 MB,  nocc,nvir = 16,36  blksize = 36
    CPU time for vovv [0:36]      0.47 sec, wall time      0.05 sec
    CPU time for ovvv      0.52 sec, wall time      0.05 sec
max_memory 62863 MB,  nocc,nvir = 16,36  blksize = 36
    CPU time for voov [0:36]      0.81 sec, wall time      0.14 sec
    CPU time for update t1 t2      6.29 sec, wall time      0.43 sec
diis-c [-2.44594006e-08  1.74173525e-01 -6.64975875e-01  1.49080235e+00]
DIIS for step 3
cycle = 4  E_corr(CCSD) = -0.421673419994886  dE = 7.41782217e-05  norm(t1,t2) = 0.00035233
    CPU time for CCSD iter      6.76 sec, wall time      0.45 sec
    CPU time for vvvv [0:9,0:9]      2.86 sec, wall time      0.10 sec
    CPU time for vvvv [9:18,0:9]      0.15 sec, wall time      0.01 sec
    CPU time for vvvv [9:18,9:18]      0.13 sec, wall time      0.01 sec
    CPU time for vvvv [18:27,0:9]      0.14 sec, wall time      0.01 sec
    CPU time for vvvv [18:27,9:18]      0.14 sec, wall time      0.01 sec
    CPU time for vvvv [18:27,18:27]      0.13 sec, wall time      0.01 sec
    CPU time for vvvv [27:36,0:9]      0.14 sec, wall time      0.01 sec
    CPU time for vvvv [27:36,9:18]      0.14 sec, wall time      0.01 sec
    CPU time for vvvv [27:36,18:27]      0.14 sec, wall time      0.01 sec
    CPU time for vvvv [27:36,27:36]      0.13 sec, wall time      0.01 sec
    CPU time for vvvv      4.14 sec, wall time      0.18 sec
max_memory 62855 MB,  nocc,nvir = 16,36  blksize = 36
    CPU time for vovv [0:36]      0.49 sec, wall time      0.05 sec
    CPU time for ovvv      0.53 sec, wall time      0.05 sec
max_memory 62855 MB,  nocc,nvir = 16,36  blksize = 36
    CPU time for voov [0:36]      0.85 sec, wall time      0.14 sec
    CPU time for update t1 t2      5.67 sec, wall time      0.40 sec
diis-c [-9.45887888e-10 -5.08091271e-02  2.00797331e-01 -5.43442541e-01
  1.39345434e+00]
DIIS for step 4
cycle = 5  E_corr(CCSD) = -0.421665737332647  dE = 7.68266224e-06  norm(t1,t2) = 5.64209e-05
    CPU time for CCSD iter      6.10 sec, wall time      0.42 sec
    CPU time for vvvv [0:9,0:9]      0.56 sec, wall time      0.02 sec
    CPU time for vvvv [9:18,0:9]      0.40 sec, wall time      0.01 sec
    CPU time for vvvv [9:18,9:18]      0.37 sec, wall time      0.01 sec
    CPU time for vvvv [18:27,0:9]      0.36 sec, wall time      0.01 sec
    CPU time for vvvv [18:27,9:18]      0.37 sec, wall time      0.01 sec
    CPU time for vvvv [18:27,18:27]      0.35 sec, wall time      0.01 sec
    CPU time for vvvv [27:36,0:9]      0.37 sec, wall time      0.01 sec
    CPU time for vvvv [27:36,9:18]      0.37 sec, wall time      0.01 sec
    CPU time for vvvv [27:36,18:27]      0.19 sec, wall time      0.01 sec
    CPU time for vvvv [27:36,27:36]      0.16 sec, wall time      0.01 sec
    CPU time for vvvv      3.52 sec, wall time      0.13 sec
max_memory 62855 MB,  nocc,nvir = 16,36  blksize = 36
    CPU time for vovv [0:36]      0.52 sec, wall time      0.05 sec
    CPU time for ovvv      0.56 sec, wall time      0.05 sec
max_memory 62855 MB,  nocc,nvir = 16,36  blksize = 36
    CPU time for voov [0:36]      0.88 sec, wall time      0.13 sec
    CPU time for update t1 t2      5.12 sec, wall time      0.34 sec
diis-c [-6.01663930e-11  1.64749915e-03 -7.27955606e-03  3.20356645e-02
 -2.22690166e-01  1.19628656e+00]
DIIS for step 5
cycle = 6  E_corr(CCSD) = -0.421665059788641  dE = 6.77544006e-07  norm(t1,t2) = 1.02939e-05
    CPU time for CCSD iter      5.55 sec, wall time      0.36 sec
    CPU time for vvvv [0:9,0:9]      1.65 sec, wall time      0.06 sec
    CPU time for vvvv [9:18,0:9]      0.38 sec, wall time      0.01 sec
    CPU time for vvvv [9:18,9:18]      0.37 sec, wall time      0.01 sec
    CPU time for vvvv [18:27,0:9]      0.38 sec, wall time      0.01 sec
    CPU time for vvvv [18:27,9:18]      0.37 sec, wall time      0.01 sec
    CPU time for vvvv [18:27,18:27]      0.21 sec, wall time      0.01 sec
    CPU time for vvvv [27:36,0:9]      0.17 sec, wall time      0.01 sec
    CPU time for vvvv [27:36,9:18]      0.18 sec, wall time      0.01 sec
    CPU time for vvvv [27:36,18:27]      0.18 sec, wall time      0.01 sec
    CPU time for vvvv [27:36,27:36]      0.16 sec, wall time      0.01 sec
    CPU time for vvvv      4.08 sec, wall time      0.16 sec
max_memory 62855 MB,  nocc,nvir = 16,36  blksize = 36
    CPU time for vovv [0:36]      0.58 sec, wall time      0.05 sec
    CPU time for ovvv      0.63 sec, wall time      0.06 sec
max_memory 62855 MB,  nocc,nvir = 16,36  blksize = 36
    CPU time for voov [0:36]      0.77 sec, wall time      0.13 sec
    CPU time for update t1 t2      5.63 sec, wall time      0.38 sec
diis-c [-2.73393282e-12  1.93966165e-03 -7.50124118e-03  1.72699531e-02
 -1.37948371e-02 -3.21443047e-01  1.32352951e+00]
DIIS for step 6
cycle = 7  E_corr(CCSD) = -0.421664904215124  dE = 1.55573517e-07  norm(t1,t2) = 2.78254e-06
    CPU time for CCSD iter      5.89 sec, wall time      0.39 sec
    CPU time for vvvv [0:9,0:9]      0.37 sec, wall time      0.01 sec
    CPU time for vvvv [9:18,0:9]      0.36 sec, wall time      0.01 sec
    CPU time for vvvv [9:18,9:18]      0.32 sec, wall time      0.01 sec
    CPU time for vvvv [18:27,0:9]      0.34 sec, wall time      0.01 sec
    CPU time for vvvv [18:27,9:18]      0.33 sec, wall time      0.01 sec
    CPU time for vvvv [18:27,18:27]      0.30 sec, wall time      0.01 sec
    CPU time for vvvv [27:36,0:9]      0.32 sec, wall time      0.01 sec
    CPU time for vvvv [27:36,9:18]      0.32 sec, wall time      0.01 sec
    CPU time for vvvv [27:36,18:27]      0.32 sec, wall time      0.01 sec
    CPU time for vvvv [27:36,27:36]      0.31 sec, wall time      0.01 sec
    CPU time for vvvv      3.35 sec, wall time      0.11 sec
max_memory 62855 MB,  nocc,nvir = 16,36  blksize = 36
    CPU time for vovv [0:36]      0.54 sec, wall time      0.05 sec
    CPU time for ovvv      0.59 sec, wall time      0.05 sec
max_memory 62855 MB,  nocc,nvir = 16,36  blksize = 36
    CPU time for voov [0:36]      0.72 sec, wall time      0.13 sec
    CPU time for update t1 t2      4.76 sec, wall time      0.31 sec
diis-c [-2.71955693e-13  1.21612606e+00  7.24561457e-05 -8.14929962e-04
  8.44422571e-03 -1.30907028e-02 -2.10737112e-01]
DIIS for step 7
cycle = 8  E_corr(CCSD) = -0.421664867247532  dE = 3.69675921e-08  norm(t1,t2) = 7.04927e-07
    CPU time for CCSD iter      4.99 sec, wall time      0.32 sec
    CPU time for CCSD     48.09 sec, wall time      3.27 sec
RCCSD converged
E(RCCSD) = -88.38840439077032  E_corr = -0.4216648672475318
DF FOUND: %r <pyscf.pbc.df.fft.FFTDF object at 0x7fa1e4d49b80>
Monkhorst pack size [1 1 1] ew_eta 2.207401477096274 ew_cut 3.139573895692605
Ewald components = 1.25526422573201e-187, -1.24595001153108, 1.07264968814688

******** <class 'pyscf.cc.dfccsd.RCCSD'> ********
CC2 = 0
CCSD nocc = 16, nmo = 39
frozen orbitals [0, 1, 2, 3, 4, 5, 6, 7, 8, 9, 10, 11, 12, 13, 14, 15, 55, 56, 57, 58, 59, 60, 61, 62, 63, 64, 65, 66, 67, 68, 69, 70, 71, 72, 73, 74, 75, 76, 77, 78, 79, 80, 81, 82, 83, 84, 85, 86, 87, 88, 89, 90, 91, 92, 93, 94, 95, 96, 97, 98, 99, 100, 101, 102, 103, 104, 105, 106, 107, 108, 109, 110, 111, 112, 113, 114, 115, 116, 117, 118, 119, 120, 121, 122, 123, 124, 125, 126, 127]
max_cycle = 50
direct = 0
conv_tol = 1e-07
conv_tol_normt = 1e-05
diis_space = 6
diis_start_cycle = 0
diis_start_energy_diff = 1e+09
max_memory 64000 MB (current use 1155 MB)
Init E_corr(CCSD) = -0.274974278521011
    CPU time for vvvv [0:6,0:6]      0.16 sec, wall time      0.01 sec
    CPU time for vvvv [6:12,0:6]      0.15 sec, wall time      0.00 sec
    CPU time for vvvv [6:12,6:12]      0.15 sec, wall time      0.00 sec
    CPU time for vvvv [12:18,0:6]      0.16 sec, wall time      0.01 sec
    CPU time for vvvv [12:18,6:12]      0.15 sec, wall time      0.00 sec
    CPU time for vvvv [12:18,12:18]      0.15 sec, wall time      0.00 sec
    CPU time for vvvv [18:23,0:6]      0.15 sec, wall time      0.00 sec
    CPU time for vvvv [18:23,6:12]      0.14 sec, wall time      0.00 sec
    CPU time for vvvv [18:23,12:18]      0.15 sec, wall time      0.01 sec
    CPU time for vvvv [18:23,18:23]      0.13 sec, wall time      0.00 sec
    CPU time for vvvv      1.53 sec, wall time      0.05 sec
max_memory 62844 MB,  nocc,nvir = 16,23  blksize = 23
    CPU time for vovv [0:23]      0.69 sec, wall time      0.02 sec
    CPU time for ovvv      0.79 sec, wall time      0.03 sec
max_memory 62844 MB,  nocc,nvir = 16,23  blksize = 23
    CPU time for voov [0:23]      0.93 sec, wall time      0.07 sec
    CPU time for update t1 t2      3.33 sec, wall time      0.16 sec
DIIS for step 0
cycle = 1  E_corr(CCSD) = -0.267069313414231  dE = 0.00790496511  norm(t1,t2) = 0.0258216
    CPU time for CCSD iter      3.69 sec, wall time      0.18 sec
    CPU time for vvvv [0:6,0:6]      0.17 sec, wall time      0.01 sec
    CPU time for vvvv [6:12,0:6]      0.15 sec, wall time      0.00 sec
    CPU time for vvvv [6:12,6:12]      0.14 sec, wall time      0.00 sec
    CPU time for vvvv [12:18,0:6]      0.15 sec, wall time      0.00 sec
    CPU time for vvvv [12:18,6:12]      0.15 sec, wall time      0.00 sec
    CPU time for vvvv [12:18,12:18]      0.15 sec, wall time      0.00 sec
    CPU time for vvvv [18:23,0:6]      0.14 sec, wall time      0.00 sec
    CPU time for vvvv [18:23,6:12]      0.14 sec, wall time      0.00 sec
    CPU time for vvvv [18:23,12:18]      0.15 sec, wall time      0.00 sec
    CPU time for vvvv [18:23,18:23]      0.13 sec, wall time      0.00 sec
    CPU time for vvvv      1.49 sec, wall time      0.05 sec
max_memory 62844 MB,  nocc,nvir = 16,23  blksize = 23
    CPU time for vovv [0:23]      0.58 sec, wall time      0.02 sec
    CPU time for ovvv      0.71 sec, wall time      0.03 sec
max_memory 62844 MB,  nocc,nvir = 16,23  blksize = 23
    CPU time for voov [0:23]      0.82 sec, wall time      0.08 sec
    CPU time for update t1 t2      3.11 sec, wall time      0.16 sec
diis-c [-3.93586513e-05  1.00000000e+00]
DIIS for step 1
cycle = 2  E_corr(CCSD) = -0.265751959702728  dE = 0.00131735371  norm(t1,t2) = 0.00627365
    CPU time for CCSD iter      3.38 sec, wall time      0.18 sec
    CPU time for vvvv [0:6,0:6]      0.17 sec, wall time      0.01 sec
    CPU time for vvvv [6:12,0:6]      0.15 sec, wall time      0.01 sec
    CPU time for vvvv [6:12,6:12]      0.15 sec, wall time      0.00 sec
    CPU time for vvvv [12:18,0:6]      0.14 sec, wall time      0.00 sec
    CPU time for vvvv [12:18,6:12]      0.15 sec, wall time      0.01 sec
    CPU time for vvvv [12:18,12:18]      0.15 sec, wall time      0.00 sec
    CPU time for vvvv [18:23,0:6]      0.14 sec, wall time      0.00 sec
    CPU time for vvvv [18:23,6:12]      0.15 sec, wall time      0.00 sec
    CPU time for vvvv [18:23,12:18]      0.14 sec, wall time      0.00 sec
    CPU time for vvvv [18:23,18:23]      0.13 sec, wall time      0.00 sec
    CPU time for vvvv      1.50 sec, wall time      0.05 sec
max_memory 62844 MB,  nocc,nvir = 16,23  blksize = 23
    CPU time for vovv [0:23]      0.72 sec, wall time      0.03 sec
    CPU time for ovvv      0.82 sec, wall time      0.03 sec
max_memory 62844 MB,  nocc,nvir = 16,23  blksize = 23
    CPU time for voov [0:23]      1.05 sec, wall time      0.08 sec
    CPU time for update t1 t2      3.45 sec, wall time      0.17 sec
diis-c [-8.42393702e-07 -4.44804323e-01  1.44480432e+00]
DIIS for step 2
cycle = 3  E_corr(CCSD) = -0.265213946001655  dE = 0.000538013701  norm(t1,t2) = 0.00211967
    CPU time for CCSD iter      3.56 sec, wall time      0.18 sec
    CPU time for vvvv [0:6,0:6]      0.14 sec, wall time      0.00 sec
    CPU time for vvvv [6:12,0:6]      0.13 sec, wall time      0.00 sec
    CPU time for vvvv [6:12,6:12]      0.13 sec, wall time      0.00 sec
    CPU time for vvvv [12:18,0:6]      0.13 sec, wall time      0.00 sec
    CPU time for vvvv [12:18,6:12]      0.13 sec, wall time      0.00 sec
    CPU time for vvvv [12:18,12:18]      0.12 sec, wall time      0.00 sec
    CPU time for vvvv [18:23,0:6]      0.12 sec, wall time      0.00 sec
    CPU time for vvvv [18:23,6:12]      0.13 sec, wall time      0.00 sec
    CPU time for vvvv [18:23,12:18]      0.12 sec, wall time      0.00 sec
    CPU time for vvvv [18:23,18:23]      0.11 sec, wall time      0.00 sec
    CPU time for vvvv      1.28 sec, wall time      0.04 sec
max_memory 62844 MB,  nocc,nvir = 16,23  blksize = 23
    CPU time for vovv [0:23]      0.51 sec, wall time      0.02 sec
    CPU time for ovvv      0.65 sec, wall time      0.02 sec
max_memory 62844 MB,  nocc,nvir = 16,23  blksize = 23
    CPU time for voov [0:23]      1.20 sec, wall time      0.08 sec
    CPU time for update t1 t2      3.21 sec, wall time      0.16 sec
diis-c [-3.46373687e-08  1.17305018e-01 -4.57493037e-01  1.34018802e+00]
DIIS for step 3
cycle = 4  E_corr(CCSD) = -0.265233449278245  dE = -1.95032766e-05  norm(t1,t2) = 0.000313954
    CPU time for CCSD iter      3.36 sec, wall time      0.16 sec
    CPU time for vvvv [0:6,0:6]      0.13 sec, wall time      0.00 sec
    CPU time for vvvv [6:12,0:6]      0.12 sec, wall time      0.00 sec
    CPU time for vvvv [6:12,6:12]      0.12 sec, wall time      0.00 sec
    CPU time for vvvv [12:18,0:6]      0.12 sec, wall time      0.00 sec
    CPU time for vvvv [12:18,6:12]      0.12 sec, wall time      0.00 sec
    CPU time for vvvv [12:18,12:18]      0.11 sec, wall time      0.00 sec
    CPU time for vvvv [18:23,0:6]      0.11 sec, wall time      0.00 sec
    CPU time for vvvv [18:23,6:12]      0.12 sec, wall time      0.00 sec
    CPU time for vvvv [18:23,12:18]      0.11 sec, wall time      0.00 sec
    CPU time for vvvv [18:23,18:23]      0.11 sec, wall time      0.00 sec
    CPU time for vvvv      1.22 sec, wall time      0.04 sec
max_memory 62844 MB,  nocc,nvir = 16,23  blksize = 23
    CPU time for vovv [0:23]      0.52 sec, wall time      0.02 sec
    CPU time for ovvv      0.61 sec, wall time      0.02 sec
max_memory 62844 MB,  nocc,nvir = 16,23  blksize = 23
    CPU time for voov [0:23]      1.24 sec, wall time      0.08 sec
    CPU time for update t1 t2      3.16 sec, wall time      0.16 sec
diis-c [-2.39711494e-09  1.12497819e-02 -3.00181571e-02 -1.19208531e-01
  1.13797691e+00]
DIIS for step 4
cycle = 5  E_corr(CCSD) = -0.26523641966192  dE = -2.97038367e-06  norm(t1,t2) = 6.61107e-05
    CPU time for CCSD iter      3.28 sec, wall time      0.16 sec
    CPU time for vvvv [0:6,0:6]      0.14 sec, wall time      0.00 sec
    CPU time for vvvv [6:12,0:6]      0.15 sec, wall time      0.00 sec
    CPU time for vvvv [6:12,6:12]      0.13 sec, wall time      0.00 sec
    CPU time for vvvv [12:18,0:6]      0.13 sec, wall time      0.00 sec
    CPU time for vvvv [12:18,6:12]      0.14 sec, wall time      0.00 sec
    CPU time for vvvv [12:18,12:18]      0.13 sec, wall time      0.00 sec
    CPU time for vvvv [18:23,0:6]      0.12 sec, wall time      0.00 sec
    CPU time for vvvv [18:23,6:12]      0.13 sec, wall time      0.00 sec
    CPU time for vvvv [18:23,12:18]      0.12 sec, wall time      0.00 sec
    CPU time for vvvv [18:23,18:23]      0.12 sec, wall time      0.00 sec
    CPU time for vvvv      1.34 sec, wall time      0.04 sec
max_memory 62844 MB,  nocc,nvir = 16,23  blksize = 23
    CPU time for vovv [0:23]      0.69 sec, wall time      0.02 sec
    CPU time for ovvv      0.79 sec, wall time      0.03 sec
max_memory 62844 MB,  nocc,nvir = 16,23  blksize = 23
    CPU time for voov [0:23]      1.23 sec, wall time      0.09 sec
    CPU time for update t1 t2      3.45 sec, wall time      0.18 sec
diis-c [-8.30943377e-11 -8.76230541e-03  3.07797733e-02 -2.79780631e-02
 -3.66879418e-01  1.37284001e+00]
DIIS for step 5
cycle = 6  E_corr(CCSD) = -0.26523842877625  dE = -2.00911433e-06  norm(t1,t2) = 1.72746e-05
    CPU time for CCSD iter      3.57 sec, wall time      0.18 sec
    CPU time for vvvv [0:6,0:6]      0.14 sec, wall time      0.00 sec
    CPU time for vvvv [6:12,0:6]      0.14 sec, wall time      0.00 sec
    CPU time for vvvv [6:12,6:12]      0.13 sec, wall time      0.00 sec
    CPU time for vvvv [12:18,0:6]      0.13 sec, wall time      0.00 sec
    CPU time for vvvv [12:18,6:12]      0.14 sec, wall time      0.00 sec
    CPU time for vvvv [12:18,12:18]      0.12 sec, wall time      0.00 sec
    CPU time for vvvv [18:23,0:6]      0.13 sec, wall time      0.00 sec
    CPU time for vvvv [18:23,6:12]      0.12 sec, wall time      0.00 sec
    CPU time for vvvv [18:23,12:18]      0.12 sec, wall time      0.00 sec
    CPU time for vvvv [18:23,18:23]      0.12 sec, wall time      0.00 sec
    CPU time for vvvv      1.33 sec, wall time      0.04 sec
max_memory 62844 MB,  nocc,nvir = 16,23  blksize = 23
    CPU time for vovv [0:23]      0.53 sec, wall time      0.02 sec
    CPU time for ovvv      0.62 sec, wall time      0.02 sec
max_memory 62844 MB,  nocc,nvir = 16,23  blksize = 23
    CPU time for voov [0:23]      1.15 sec, wall time      0.07 sec
    CPU time for update t1 t2      3.19 sec, wall time      0.16 sec
diis-c [-3.31974958e-12  3.36240364e-03 -1.24171920e-02  1.99201741e-02
  9.42012123e-02 -5.58432519e-01  1.45336592e+00]
DIIS for step 6
cycle = 7  E_corr(CCSD) = -0.265238637735456  dE = -2.08959206e-07  norm(t1,t2) = 3.6816e-06
    CPU time for CCSD iter      3.42 sec, wall time      0.17 sec
    CPU time for vvvv [0:6,0:6]      0.18 sec, wall time      0.01 sec
    CPU time for vvvv [6:12,0:6]      0.16 sec, wall time      0.01 sec
    CPU time for vvvv [6:12,6:12]      0.15 sec, wall time      0.01 sec
    CPU time for vvvv [12:18,0:6]      0.15 sec, wall time      0.00 sec
    CPU time for vvvv [12:18,6:12]      0.15 sec, wall time      0.00 sec
    CPU time for vvvv [12:18,12:18]      0.14 sec, wall time      0.00 sec
    CPU time for vvvv [18:23,0:6]      0.14 sec, wall time      0.00 sec
    CPU time for vvvv [18:23,6:12]      0.14 sec, wall time      0.00 sec
    CPU time for vvvv [18:23,12:18]      0.13 sec, wall time      0.00 sec
    CPU time for vvvv [18:23,18:23]      0.13 sec, wall time      0.00 sec
    CPU time for vvvv      1.50 sec, wall time      0.05 sec
max_memory 62844 MB,  nocc,nvir = 16,23  blksize = 23
    CPU time for vovv [0:23]      0.75 sec, wall time      0.03 sec
    CPU time for ovvv      0.85 sec, wall time      0.03 sec
max_memory 62844 MB,  nocc,nvir = 16,23  blksize = 23
    CPU time for voov [0:23]      0.87 sec, wall time      0.08 sec
    CPU time for update t1 t2      3.31 sec, wall time      0.17 sec
diis-c [-2.26154962e-13  1.19692342e+00  7.43139867e-05 -6.12251482e-04
  2.80548796e-04  2.89425238e-02 -2.25608557e-01]
DIIS for step 7
cycle = 8  E_corr(CCSD) = -0.265238713552086  dE = -7.58166299e-08  norm(t1,t2) = 6.54499e-07
    CPU time for CCSD iter      3.48 sec, wall time      0.18 sec
    CPU time for CCSD     27.73 sec, wall time      1.38 sec
RCCSD converged
E(RCCSD) = -88.23197823707487  E_corr = -0.2652387135520856
DF FOUND: %r <pyscf.pbc.df.fft.FFTDF object at 0x7fa1e4d49b80>
Monkhorst pack size [1 1 1] ew_eta 2.207401477096274 ew_cut 3.139573895692605
Ewald components = 1.25526422573201e-187, -1.24595001153108, 1.07264968814688

******** <class 'pyscf.cc.dfccsd.RCCSD'> ********
CC2 = 0
CCSD nocc = 4, nmo = 14
frozen orbitals [0, 1, 2, 3, 4, 5, 6, 7, 8, 9, 10, 11, 12, 13, 14, 15, 16, 17, 18, 19, 20, 21, 22, 23, 24, 25, 26, 27, 42, 43, 44, 45, 46, 47, 48, 49, 50, 51, 52, 53, 54, 55, 56, 57, 58, 59, 60, 61, 62, 63, 64, 65, 66, 67, 68, 69, 70, 71, 72, 73, 74, 75, 76, 77, 78, 79, 80, 81, 82, 83, 84, 85, 86, 87, 88, 89, 90, 91, 92, 93, 94, 95, 96, 97, 98, 99, 100, 101, 102, 103, 104, 105, 106, 107, 108, 109, 110, 111, 112, 113, 114, 115, 116, 117, 118, 119, 120, 121, 122, 123, 124, 125, 126, 127]
max_cycle = 50
direct = 0
conv_tol = 1e-07
conv_tol_normt = 1e-05
diis_space = 6
diis_start_cycle = 0
diis_start_energy_diff = 1e+09
max_memory 64000 MB (current use 1155 MB)
Init E_corr(CCSD) = -0.0959569214696704
    CPU time for vvvv [0:3,0:3]      0.06 sec, wall time      0.00 sec
    CPU time for vvvv [3:6,0:3]      0.05 sec, wall time      0.00 sec
    CPU time for vvvv [3:6,3:6]      0.05 sec, wall time      0.00 sec
    CPU time for vvvv [6:9,0:3]      0.04 sec, wall time      0.00 sec
    CPU time for vvvv [6:9,3:6]      0.04 sec, wall time      0.00 sec
    CPU time for vvvv [6:9,6:9]      0.05 sec, wall time      0.00 sec
    CPU time for vvvv [9:10,0:3]      0.04 sec, wall time      0.00 sec
    CPU time for vvvv [9:10,3:6]      0.05 sec, wall time      0.00 sec
    CPU time for vvvv [9:10,6:9]      0.04 sec, wall time      0.00 sec
    CPU time for vvvv [9:10,9:10]      0.04 sec, wall time      0.00 sec
    CPU time for vvvv      0.46 sec, wall time      0.02 sec
max_memory 62844 MB,  nocc,nvir = 4,10  blksize = 10
    CPU time for vovv [0:10]      0.05 sec, wall time      0.00 sec
    CPU time for ovvv      0.11 sec, wall time      0.00 sec
max_memory 62844 MB,  nocc,nvir = 4,10  blksize = 10
    CPU time for voov [0:10]      0.07 sec, wall time      0.00 sec
    CPU time for update t1 t2      0.65 sec, wall time      0.02 sec
DIIS for step 0
cycle = 1  E_corr(CCSD) = -0.0952888879250977  dE = 0.000668033545  norm(t1,t2) = 0.00771363
    CPU time for CCSD iter      0.67 sec, wall time      0.03 sec
    CPU time for vvvv [0:3,0:3]      0.05 sec, wall time      0.00 sec
    CPU time for vvvv [3:6,0:3]      0.04 sec, wall time      0.00 sec
    CPU time for vvvv [3:6,3:6]      0.04 sec, wall time      0.00 sec
    CPU time for vvvv [6:9,0:3]      0.05 sec, wall time      0.00 sec
    CPU time for vvvv [6:9,3:6]      0.04 sec, wall time      0.00 sec
    CPU time for vvvv [6:9,6:9]      0.04 sec, wall time      0.00 sec
    CPU time for vvvv [9:10,0:3]      0.04 sec, wall time      0.00 sec
    CPU time for vvvv [9:10,3:6]      0.04 sec, wall time      0.00 sec
    CPU time for vvvv [9:10,6:9]      0.04 sec, wall time      0.00 sec
    CPU time for vvvv [9:10,9:10]      0.04 sec, wall time      0.00 sec
    CPU time for vvvv      0.44 sec, wall time      0.01 sec
max_memory 62844 MB,  nocc,nvir = 4,10  blksize = 10
    CPU time for vovv [0:10]      0.04 sec, wall time      0.00 sec
    CPU time for ovvv      0.09 sec, wall time      0.00 sec
max_memory 62844 MB,  nocc,nvir = 4,10  blksize = 10
    CPU time for voov [0:10]      0.08 sec, wall time      0.00 sec
    CPU time for update t1 t2      0.61 sec, wall time      0.02 sec
diis-c [-4.59362614e-06  1.00000000e+00]
DIIS for step 1
cycle = 2  E_corr(CCSD) = -0.0952541058892359  dE = 3.47820359e-05  norm(t1,t2) = 0.00214327
    CPU time for CCSD iter      1.13 sec, wall time      0.04 sec
    CPU time for vvvv [0:3,0:3]      1.26 sec, wall time      0.04 sec
    CPU time for vvvv [3:6,0:3]      0.05 sec, wall time      0.00 sec
    CPU time for vvvv [3:6,3:6]      0.05 sec, wall time      0.00 sec
    CPU time for vvvv [6:9,0:3]      0.05 sec, wall time      0.00 sec
    CPU time for vvvv [6:9,3:6]      0.04 sec, wall time      0.00 sec
    CPU time for vvvv [6:9,6:9]      0.02 sec, wall time      0.00 sec
    CPU time for vvvv [9:10,0:3]      0.02 sec, wall time      0.00 sec
    CPU time for vvvv [9:10,3:6]      0.03 sec, wall time      0.00 sec
    CPU time for vvvv [9:10,6:9]      0.02 sec, wall time      0.00 sec
    CPU time for vvvv [9:10,9:10]      0.03 sec, wall time      0.00 sec
    CPU time for vvvv      1.59 sec, wall time      0.06 sec
max_memory 62844 MB,  nocc,nvir = 4,10  blksize = 10
    CPU time for vovv [0:10]      0.03 sec, wall time      0.00 sec
    CPU time for ovvv      0.06 sec, wall time      0.00 sec
max_memory 62844 MB,  nocc,nvir = 4,10  blksize = 10
    CPU time for voov [0:10]      0.00 sec, wall time      0.00 sec
    CPU time for update t1 t2      1.65 sec, wall time      0.07 sec
diis-c [-9.63572956e-08 -5.30061970e-01  1.53006197e+00]
DIIS for step 2
cycle = 3  E_corr(CCSD) = -0.0952029609524266  dE = 5.11449368e-05  norm(t1,t2) = 0.000797557
    CPU time for CCSD iter      1.67 sec, wall time      0.07 sec
    CPU time for vvvv [0:3,0:3]      0.03 sec, wall time      0.00 sec
    CPU time for vvvv [3:6,0:3]      0.03 sec, wall time      0.00 sec
    CPU time for vvvv [3:6,3:6]      0.03 sec, wall time      0.00 sec
    CPU time for vvvv [6:9,0:3]      0.03 sec, wall time      0.00 sec
    CPU time for vvvv [6:9,3:6]      0.03 sec, wall time      0.00 sec
    CPU time for vvvv [6:9,6:9]      0.03 sec, wall time      0.00 sec
    CPU time for vvvv [9:10,0:3]      0.02 sec, wall time      0.00 sec
    CPU time for vvvv [9:10,3:6]      0.03 sec, wall time      0.00 sec
    CPU time for vvvv [9:10,6:9]      0.02 sec, wall time      0.00 sec
    CPU time for vvvv [9:10,9:10]      0.02 sec, wall time      0.00 sec
    CPU time for vvvv      0.26 sec, wall time      0.02 sec
max_memory 62844 MB,  nocc,nvir = 4,10  blksize = 10
    CPU time for vovv [0:10]      0.03 sec, wall time      0.00 sec
    CPU time for ovvv      0.05 sec, wall time      0.00 sec
max_memory 62844 MB,  nocc,nvir = 4,10  blksize = 10
    CPU time for voov [0:10]      0.00 sec, wall time      0.00 sec
    CPU time for update t1 t2      0.32 sec, wall time      0.02 sec
diis-c [-4.13465600e-09  2.02661607e-01 -6.56823664e-01  1.45416206e+00]
DIIS for step 3
cycle = 4  E_corr(CCSD) = -0.0951790212035087  dE = 2.39397489e-05  norm(t1,t2) = 0.000120196
    CPU time for CCSD iter      0.34 sec, wall time      0.03 sec
    CPU time for vvvv [0:3,0:3]      0.03 sec, wall time      0.00 sec
    CPU time for vvvv [3:6,0:3]      0.03 sec, wall time      0.00 sec
    CPU time for vvvv [3:6,3:6]      0.02 sec, wall time      0.00 sec
    CPU time for vvvv [6:9,0:3]      0.03 sec, wall time      0.00 sec
    CPU time for vvvv [6:9,3:6]      0.03 sec, wall time      0.00 sec
    CPU time for vvvv [6:9,6:9]      0.02 sec, wall time      0.00 sec
    CPU time for vvvv [9:10,0:3]      0.03 sec, wall time      0.00 sec
    CPU time for vvvv [9:10,3:6]      0.03 sec, wall time      0.00 sec
    CPU time for vvvv [9:10,6:9]      0.03 sec, wall time      0.00 sec
    CPU time for vvvv [9:10,9:10]      0.02 sec, wall time      0.00 sec
    CPU time for vvvv      0.27 sec, wall time      0.02 sec
max_memory 62844 MB,  nocc,nvir = 4,10  blksize = 10
    CPU time for vovv [0:10]      0.03 sec, wall time      0.00 sec
    CPU time for ovvv      0.05 sec, wall time      0.00 sec
max_memory 62844 MB,  nocc,nvir = 4,10  blksize = 10
    CPU time for voov [0:10]      0.01 sec, wall time      0.00 sec
    CPU time for update t1 t2      0.33 sec, wall time      0.02 sec
diis-c [-4.90543612e-11 -5.45019775e-02  1.79521926e-01 -4.96704955e-01
  1.37168501e+00]
DIIS for step 4
cycle = 5  E_corr(CCSD) = -0.0951728544206351  dE = 6.16678287e-06  norm(t1,t2) = 1.98757e-05
    CPU time for CCSD iter      0.35 sec, wall time      0.03 sec
    CPU time for vvvv [0:3,0:3]      0.03 sec, wall time      0.00 sec
    CPU time for vvvv [3:6,0:3]      0.03 sec, wall time      0.00 sec
    CPU time for vvvv [3:6,3:6]      0.03 sec, wall time      0.00 sec
    CPU time for vvvv [6:9,0:3]      0.03 sec, wall time      0.00 sec
    CPU time for vvvv [6:9,3:6]      0.03 sec, wall time      0.00 sec
    CPU time for vvvv [6:9,6:9]      0.03 sec, wall time      0.00 sec
    CPU time for vvvv [9:10,0:3]      0.03 sec, wall time      0.00 sec
    CPU time for vvvv [9:10,3:6]      0.03 sec, wall time      0.00 sec
    CPU time for vvvv [9:10,6:9]      0.03 sec, wall time      0.00 sec
    CPU time for vvvv [9:10,9:10]      0.02 sec, wall time      0.00 sec
    CPU time for vvvv      0.28 sec, wall time      0.02 sec
max_memory 62844 MB,  nocc,nvir = 4,10  blksize = 10
    CPU time for vovv [0:10]      0.03 sec, wall time      0.00 sec
    CPU time for ovvv      0.05 sec, wall time      0.00 sec
max_memory 62844 MB,  nocc,nvir = 4,10  blksize = 10
    CPU time for voov [0:10]      0.01 sec, wall time      0.00 sec
    CPU time for update t1 t2      0.33 sec, wall time      0.03 sec
diis-c [-1.07987365e-12  9.53172837e-03 -3.15854344e-02  9.49996222e-02
 -3.18785218e-01  1.24583930e+00]
DIIS for step 5
cycle = 6  E_corr(CCSD) = -0.0951723980242587  dE = 4.56396376e-07  norm(t1,t2) = 1.85686e-06
    CPU time for CCSD iter      0.36 sec, wall time      0.03 sec
    CPU time for vvvv [0:3,0:3]      0.03 sec, wall time      0.00 sec
    CPU time for vvvv [3:6,0:3]      0.03 sec, wall time      0.00 sec
    CPU time for vvvv [3:6,3:6]      0.03 sec, wall time      0.00 sec
    CPU time for vvvv [6:9,0:3]      0.03 sec, wall time      0.00 sec
    CPU time for vvvv [6:9,3:6]      0.03 sec, wall time      0.00 sec
    CPU time for vvvv [6:9,6:9]      0.03 sec, wall time      0.00 sec
    CPU time for vvvv [9:10,0:3]      0.02 sec, wall time      0.00 sec
    CPU time for vvvv [9:10,3:6]      0.03 sec, wall time      0.00 sec
    CPU time for vvvv [9:10,6:9]      0.03 sec, wall time      0.00 sec
    CPU time for vvvv [9:10,9:10]      0.02 sec, wall time      0.00 sec
    CPU time for vvvv      0.27 sec, wall time      0.02 sec
max_memory 62844 MB,  nocc,nvir = 4,10  blksize = 10
    CPU time for vovv [0:10]      0.03 sec, wall time      0.00 sec
    CPU time for ovvv      0.05 sec, wall time      0.00 sec
max_memory 62844 MB,  nocc,nvir = 4,10  blksize = 10
    CPU time for voov [0:10]      0.00 sec, wall time      0.00 sec
    CPU time for update t1 t2      0.32 sec, wall time      0.02 sec
diis-c [-2.39895250e-14 -7.56104610e-05  2.99247279e-04 -3.12384358e-03
  2.08684063e-02 -2.54078987e-01  1.23611079e+00]
DIIS for step 6
cycle = 7  E_corr(CCSD) = -0.0951723350620952  dE = 6.29621635e-08  norm(t1,t2) = 3.11243e-07
    CPU time for CCSD iter      0.35 sec, wall time      0.03 sec
    CPU time for CCSD      4.86 sec, wall time      0.24 sec
RCCSD converged
E(RCCSD) = -88.06191185858488  E_corr = -0.0951723350620952
Ewald components = 6.92324837582012e-17, -321.102434102427, 216.852988926803
Time for k-EmbWF= 22.801
E(EmbWF) = [-11.164554875527944, -11.155952561904053, -11.138308590895624, -11.092076282426891]
SUCCESS
