arg.atm = [[ 4 20  1 23  0  0]
 [ 4 24  1 27  0  0]]
arg.bas = [[ 0  0  4  2  0 28 32  0]
 [ 0  1  4  2  0 40 44  0]
 [ 1  0  4  2  0 28 32  0]
 [ 1  1  4  2  0 40 44  0]]
arg.env = [ 0.          0.          0.          0.          0.          0.
  0.          0.          0.          0.          0.          0.
  0.          0.          0.          0.          0.          0.
  0.          0.          3.3637125   1.94204032 18.89726125  0.
  6.727425    3.88408064 18.89726125  0.          4.33623764  1.28818385
  0.40377671  0.11878777  1.13179715 -0.08939889 -0.8807207  -0.20266289
  0.          0.          0.          0.51120349  4.33623764  1.28818385
  0.40377671  0.11878777 -1.60299215 -1.11123874 -0.44247981 -0.08255916
  0.          0.          0.          0.20344594]
ecpbas  = []
System: uname_result(system='Linux', node='zombie', release='4.4.0-203-generic', version='#235-Ubuntu SMP Tue Feb 2 02:49:08 UTC 2021', machine='x86_64', processor='x86_64')  Threads 16
Python 3.8.8 (default, Feb 20 2021, 21:11:43) 
[GCC 5.4.0 20160609]
numpy 1.20.1  scipy 1.6.1
Date: Thu Jun 17 12:31:03 2021
PySCF version 2.0.0a
PySCF path  /home/max/git/pyscf
GIT ORIG_HEAD d2ceb2195974a7f36708b894e68b4c363b18e101
GIT HEAD (branch master) d2ceb2195974a7f36708b894e68b4c363b18e101

[ENV] PYSCFHOME /home/max/git/pyscf
[ENV] PYSCF_MAX_MEMORY 64000
[CONFIG] DEBUG = False
[CONFIG] MAX_MEMORY = 64000
[CONFIG] TMPDIR = .
[CONFIG] UNIT = angstrom
[CONFIG] VERBOSE = 3
[CONFIG] conf_file = None
[INPUT] verbose = 10
[INPUT] max_memory = 64000 
[INPUT] num. atoms = 2
[INPUT] num. electrons = 8
[INPUT] charge = 0
[INPUT] spin (= nelec alpha-beta = 2S) = 0
[INPUT] symmetry False subgroup None
[INPUT] Mole.unit = angstrom
[INPUT]  1 C      1.780000000000   1.027683479158  10.000000000000 AA    3.363712501726   1.942040318348  18.897261245651 Bohr
[INPUT]  2 C      3.560000000000   2.055366958315  10.000000000000 AA    6.727425003452   3.884080636696  18.897261245651 Bohr
[INPUT] ---------------- BASIS SET ---------------- 
[INPUT] l, kappa, [nprim/nctr], expnt,             c_1 c_2 ...
[INPUT] C
[INPUT] 0    0    [4    /2   ]  4.3362376436      0.1490797872    0
                                1.2881838513      -0.0292640031    0
                                0.4037767149      -0.688204051    0
                                0.1187877657      -0.3964426906    1
[INPUT] 1    0    [4    /2   ]  4.3362376436      -0.0878123619    0
                                1.2881838513      -0.27755603    0
                                0.4037767149      -0.4712295093    0
                                0.1187877657      -0.4058039291    1

Ewald components = 0.00297667713604692, -12.068363622045, -1.62339853813195
nuclear repulsion = -13.6887854830409
number of shells = 4
number of NR pGTOs = 32
number of NR cGTOs = 16
basis = gth-dzv
ecp = {}
bas 0, expnt(s) = [4.33623764 1.28818385 0.40377671 0.11878777]
bas 1, expnt(s) = [4.33623764 1.28818385 0.40377671 0.11878777]
bas 2, expnt(s) = [4.33623764 1.28818385 0.40377671 0.11878777]
bas 3, expnt(s) = [4.33623764 1.28818385 0.40377671 0.11878777]
CPU time:         1.72
lattice vectors  a1 [6.727425003, 0.000000000, 0.000000000]
                 a2 [3.363712502, 5.826120955, 0.000000000]
                 a3 [0.000000000, 0.000000000, 37.794522491]
dimension = 2
low_dim_ft_type = None
Cell volume = 1481.35
rcut = 20.60710622719259 (nimgs = [4 4 1])
lattice sum = 69 cells
precision = 1e-08
pseudo = gth-pade
ke_cutoff = 257.0619664735998
    = [ 43  43 273] mesh (504777 PWs)
eta_guess = 0.2


******** <class 'pyscf.pbc.scf.khf.KRHF'> ********
method = KRHF-KSCF-RHF-SCF-RHF
initial guess = minao
damping factor = 0
level_shift factor = 0
DIIS = <class 'pyscf.scf.diis.CDIIS'>
diis_start_cycle = 1
diis_space = 8
SCF conv_tol = 1e-07
SCF conv_tol_grad = None
SCF max_cycles = 50
direct_scf = True
direct_scf_tol = 1e-13
chkfile to save SCF result = /home/max/git/vayesta/vayesta/ewf/test/tmp1l31r4pi
max_memory 64000 MB (current use 86 MB)


******** PBC SCF flags ********
N kpts = 4
kpts = [[ 0.          0.          0.        ]
 [ 0.          0.53922544  0.        ]
 [ 0.46698293 -0.26961272  0.        ]
 [ 0.46698293  0.26961272  0.        ]]
Exchange divergence treatment (exxdiv) = ewald
Monkhorst pack size [2 2 1] ew_eta 0.6684567992506761 ew_cut 9.794991494619481
Ewald components = 1.02852734780882e-37, -0.377136363188905, 0.220560012134261
    madelung (= occupied orbital energy shift) = 0.3131527021092875
    Total energy shift due to Ewald probe charge = -1/2 * Nelec*madelung = -1.25261080844
DF object = <pyscf.pbc.df.df.GDF object at 0x7fcfb005c940>
Set gradient conv threshold to 0.000316228
Big error detected in the electron number of initial guess density matrix (Ne/cell = 7.99956)!
  This can cause huge error in Fock matrix and lead to instability in SCF for low-dimensional systems.
  DM is normalized wrt the number of electrons 8.0
    CPU time for vnuc pass1: analytic int      0.43 sec, wall time      0.05 sec
    CPU time for contracting Vnuc [0:3328]      4.18 sec, wall time      0.57 sec
    CPU time for contracting Vnuc      4.18 sec, wall time      0.57 sec
    CPU time for get_pp_loc_part1      4.66 sec, wall time      0.62 sec
    CPU time for get_pp_loc_part2      0.46 sec, wall time      0.04 sec
    CPU time for get_pp_nl      0.05 sec, wall time      0.00 sec
    CPU time for get_pp      5.18 sec, wall time      0.67 sec


******** <class 'pyscf.pbc.df.df.GDF'> ********
mesh = [9, 9, 53] (4293 PWs)
auxbasis = None
eta = 0.2
exp_to_discard = None
_cderi_to_save = /home/max/git/vayesta/vayesta/ewf/test/tmpvktcdrko
len(kpts) = 4
    kpts = [[ 0.          0.          0.        ]
 [ 0.          0.53922544  0.        ]
 [ 0.46698293 -0.26961272  0.        ]
 [ 0.46698293  0.26961272  0.        ]]
Even tempered Gaussians are generated as DF auxbasis for  C
  ETB auxbasis for C  [[0, [7.6024170048, 1]], [0, [3.8012085024, 1]], [0, [1.9006042512, 1]], [0, [0.9503021256, 1]], [0, [0.4751510628, 1]], [0, [0.2375755314, 1]], [1, [7.6024170048, 1]], [1, [3.8012085024, 1]], [1, [1.9006042512, 1]], [1, [0.9503021256, 1]], [1, [0.4751510628, 1]], [1, [0.2375755314, 1]], [2, [7.6024170048, 1]], [2, [3.8012085024, 1]], [2, [1.9006042512, 1]], [2, [0.9503021256, 1]], [2, [0.4751510628, 1]], [2, [0.2375755314, 1]]]
num shells = 36, num cGTOs = 108
Drop 0 primitive fitting functions
make aux basis, num shells = 36, num cGTOs = 108
auxcell.rcut 11.74299217792449
make compensating basis, num shells = 6, num cGTOs = 18
chgcell.rcut 17.56600021401809
    CPU time for 3c2e      3.88 sec, wall time      0.64 sec
Num uniq kpts 5
uniq_kpts [[ 0.          0.          0.        ]
 [ 0.         -0.53922544  0.        ]
 [-0.46698293  0.26961272  0.        ]
 [-0.46698293  0.80883816  0.        ]
 [-0.46698293 -0.26961272  0.        ]]
max_memory 63848.394752 (MB)  blocksize 15835415
Cholesky decomposition for j2c at kpt 0
DF metric linear dependency for kpt 0: cond= -3.434 dropping 1 bfns
2D system: Adding 1 bfns to j2c_negative
Symmetry pattern (k - [0. 0. 0.])*a= 2n pi
    make_kpt for uniq_kptji_ids [0]
kpt = [0. 0. 0.]
adapted_ji_idx = [0 2 5 9]
memory = 180.256768
int3c2e [1/1], AO [0:4], ncol = 136
Symmetry pattern (k + [0. 0. 0.])*a= 2n pi
    make_kpt for [0]
Cholesky decomposition for j2c at kpt 1
Symmetry pattern (k - [ 0.         -0.53922544  0.        ])*a= 2n pi
    make_kpt for uniq_kptji_ids [1]
kpt = [ 0.         -0.53922544  0.        ]
adapted_ji_idx = [1 8]
memory = 261.738496
int3c2e [1/1], AO [0:4], ncol = 256
Symmetry pattern (k + [ 0.         -0.53922544  0.        ])*a= 2n pi
    make_kpt for [1]
Cholesky decomposition for j2c at kpt 2
Symmetry pattern (k - [-0.46698293  0.26961272  0.        ])*a= 2n pi
    make_kpt for uniq_kptji_ids [2]
kpt = [-0.46698293  0.26961272  0.        ]
adapted_ji_idx = [3 7]
memory = 361.095168
int3c2e [1/1], AO [0:4], ncol = 256
Symmetry pattern (k + [-0.46698293  0.26961272  0.        ])*a= 2n pi
    make_kpt for [2]
Cholesky decomposition for j2c at kpt 3
Symmetry pattern (k - [-0.46698293  0.80883816  0.        ])*a= 2n pi
    make_kpt for uniq_kptji_ids [3 4]
kpt = [-0.46698293  0.80883816  0.        ]
adapted_ji_idx = [4]
memory = 397.410304
int3c2e [1/1], AO [0:4], ncol = 256
kpt = [-0.46698293 -0.26961272  0.        ]
adapted_ji_idx = [6]
memory = 407.53152
int3c2e [1/1], AO [0:4], ncol = 256
Symmetry pattern (k + [-0.46698293  0.80883816  0.        ])*a= 2n pi
    make_kpt for [3 4]
    CPU time for j3c     63.26 sec, wall time      5.64 sec
    CPU time for Init get_k_kpts     63.33 sec, wall time      5.65 sec
    CPU time for get_k_kpts: make_kpt ki>=kj (0,*)      0.53 sec, wall time      0.05 sec
    CPU time for get_k_kpts: make_kpt ki>=kj (1,*)      0.76 sec, wall time      0.08 sec
    CPU time for get_k_kpts: make_kpt ki>=kj (2,*)      0.42 sec, wall time      0.04 sec
    CPU time for get_k_kpts: make_kpt ki>=kj (3,*)      0.41 sec, wall time      0.03 sec
Monkhorst pack size [2 2 1] ew_eta 0.6684567992506761 ew_cut 9.794991494619481
Ewald components = 1.02852734780882e-37, -0.377136363188905, 0.220560012134261
    CPU time for get_j pass 1      2.08 sec, wall time      0.15 sec
    CPU time for get_j pass 2      0.21 sec, wall time      0.01 sec
    CPU time for vj and vk     68.27 sec, wall time      6.06 sec
Ewald components = 0.00297667713604692, -12.068363622045, -1.62339853813195
E1 = (10.82656353175587+2.313092997271024e-18j)  E_coul = (-7.5360457257330715+4.8376531006661517e-32j)
init E= -10.3982676770181
cond(S) = [ 445.20556212 2130.37440258 2130.37440258 2130.37440258]
    CPU time for initialize scf     75.81 sec, wall time      6.86 sec
Removing linearly dependent bfns: method= canonical-orth threshold= 1.0e-07 N(tot)=   16 N(removed)=   0
Removing linearly dependent bfns: method= canonical-orth threshold= 1.0e-07 N(tot)=   16 N(removed)=   0
Removing linearly dependent bfns: method= canonical-orth threshold= 1.0e-07 N(tot)=   16 N(removed)=   0
Removing linearly dependent bfns: method= canonical-orth threshold= 1.0e-07 N(tot)=   16 N(removed)=   0
HOMO = -0.158672638007  LUMO = -0.158672638006

WARN: HOMO -0.158672638007 == LUMO -0.158672638006

     k-point                  mo_energy
   0 ( 0.000  0.000  0.000)   [-1.13657808 -0.37109927 -0.28395118 -0.19996781 -0.19996781] [0.08898569 0.0918799  0.0918799  0.47327955 0.60234359 0.82628907
 0.82628907 0.97823332 1.10202628 1.10202628 1.83621995]
   1 ( 0.000  0.500  0.000)   [-0.92292361 -0.75269467 -0.28284568 -0.15867264] [-0.11201138 -0.05438133  0.20237771  0.24980312  0.49526741  0.57002281
  0.58379983  0.86642392  0.90894608  1.2320769   1.25990353  1.70093673]
   2 ( 0.500 -0.000  0.000)   [-0.92292361 -0.75269467 -0.28284568 -0.15867264] [-0.11201138 -0.05438133  0.20237771  0.24980312  0.49526741  0.57002281
  0.58379983  0.86642392  0.90894608  1.2320769   1.25990353  1.70093673]
   3 ( 0.500  0.500  0.000)   [-0.92292361 -0.75269467 -0.28284568] [-0.15867264 -0.11201138 -0.05438133  0.20237771  0.24980312  0.49526741
  0.57002281  0.58379983  0.86642392  0.90894608  1.2320769   1.25990353
  1.70093673]
    CPU time for get_k_kpts: make_kpt ki>=kj (0,*)      2.30 sec, wall time      0.13 sec
    CPU time for get_k_kpts: make_kpt ki>=kj (1,*)      0.84 sec, wall time      0.07 sec
    CPU time for get_k_kpts: make_kpt ki>=kj (2,*)      2.13 sec, wall time      0.20 sec
    CPU time for get_k_kpts: make_kpt ki>=kj (3,*)      2.27 sec, wall time      0.20 sec
Monkhorst pack size [2 2 1] ew_eta 0.6684567992506761 ew_cut 9.794991494619481
Ewald components = 1.02852734780882e-37, -0.377136363188905, 0.220560012134261
    CPU time for get_j pass 1      2.12 sec, wall time      0.12 sec
    CPU time for get_j pass 2      0.25 sec, wall time      0.02 sec
    CPU time for vj and vk     10.43 sec, wall time      0.78 sec
Ewald components = 0.00297667713604692, -12.068363622045, -1.62339853813195
E1 = (11.05313955163114-4.2423937261350465e-18j)  E_coul = (-8.002255211218277+1.9950464171078973e-19j)
cycle= 1 E= -10.637901142628  delta_E= -0.24  |g|=  0.2  |ddm|= 4.56
    CPU time for cycle= 1     10.71 sec, wall time      0.80 sec
diis-norm(errvec)=0.247611
diis-c [-0.061311+0.j  1.      +0.j]
Removing linearly dependent bfns: method= canonical-orth threshold= 1.0e-07 N(tot)=   16 N(removed)=   0
Removing linearly dependent bfns: method= canonical-orth threshold= 1.0e-07 N(tot)=   16 N(removed)=   0
Removing linearly dependent bfns: method= canonical-orth threshold= 1.0e-07 N(tot)=   16 N(removed)=   0
Removing linearly dependent bfns: method= canonical-orth threshold= 1.0e-07 N(tot)=   16 N(removed)=   0
HOMO = -0.322674491847  LUMO = -0.113524179246
     k-point                  mo_energy
   0 ( 0.000  0.000  0.000)   [-0.99833343 -0.49372006 -0.43629597 -0.43362212 -0.41388027] [0.10709069 0.107341   0.10838879 0.44290446 0.57316408 0.79207738
 0.7930931  0.9579694  1.06450267 1.06764047 1.81451626]
   1 ( 0.000  0.500  0.000)   [-0.90204052 -0.78427778 -0.4799604  -0.32267449] [-0.06883065 -0.0272297   0.19042793  0.24578308  0.45425977  0.5485262
  0.55734941  0.83077059  0.86994587  1.19901028  1.23547675  1.66878523]
   2 ( 0.500 -0.000  0.000)   [-0.90204052 -0.78427778 -0.4799604  -0.32267449] [-0.06883065 -0.0272297   0.19042793  0.24578308  0.45425977  0.5485262
  0.55734941  0.83077059  0.86994587  1.19901028  1.23547675  1.66878523]
   3 ( 0.500  0.500  0.000)   [-0.89227951 -0.7833332  -0.48150105] [-0.11352418 -0.07261362 -0.05042445  0.194017    0.24561499  0.45482978
  0.54934238  0.55905648  0.83421619  0.86917279  1.19797899  1.23541302
  1.6766285 ]
    CPU time for get_k_kpts: make_kpt ki>=kj (0,*)      2.34 sec, wall time      0.12 sec
    CPU time for get_k_kpts: make_kpt ki>=kj (1,*)      0.41 sec, wall time      0.03 sec
    CPU time for get_k_kpts: make_kpt ki>=kj (2,*)      0.86 sec, wall time      0.08 sec
    CPU time for get_k_kpts: make_kpt ki>=kj (3,*)      2.60 sec, wall time      0.20 sec
Monkhorst pack size [2 2 1] ew_eta 0.6684567992506761 ew_cut 9.794991494619481
Ewald components = 1.02852734780882e-37, -0.377136363188905, 0.220560012134261
    CPU time for get_j pass 1      1.19 sec, wall time      0.05 sec
    CPU time for get_j pass 2      0.25 sec, wall time      0.01 sec
    CPU time for vj and vk      7.90 sec, wall time      0.52 sec
Ewald components = 0.00297667713604692, -12.068363622045, -1.62339853813195
E1 = (10.910118759183215-1.61769571550164e-17j)  E_coul = (-7.863545391519606+8.382542706987421e-18j)
cycle= 2 E= -10.6422121153773  delta_E= -0.00431  |g|= 0.0333  |ddm|= 0.576
    CPU time for cycle= 2      8.20 sec, wall time      0.54 sec
diis-norm(errvec)=0.0440876
diis-c [-0.00155139+0.00000000e+00j -0.08816913+1.60060953e-26j
  1.08816913-1.60060953e-26j]
Removing linearly dependent bfns: method= canonical-orth threshold= 1.0e-07 N(tot)=   16 N(removed)=   0
Removing linearly dependent bfns: method= canonical-orth threshold= 1.0e-07 N(tot)=   16 N(removed)=   0
Removing linearly dependent bfns: method= canonical-orth threshold= 1.0e-07 N(tot)=   16 N(removed)=   0
Removing linearly dependent bfns: method= canonical-orth threshold= 1.0e-07 N(tot)=   16 N(removed)=   0
HOMO = -0.307031656285  LUMO = -0.0970532143337
     k-point                  mo_energy
   0 ( 0.000  0.000  0.000)   [-0.97866822 -0.46948967 -0.41717244 -0.41547562 -0.39928554] [0.1274704  0.12789538 0.12865875 0.45625914 0.58627292 0.80906729
 0.80985632 0.96887278 1.08178264 1.08450489 1.82632229]
   1 ( 0.000  0.500  0.000)   [-0.88239727 -0.76410531 -0.46178846 -0.30703166] [-0.04825824 -0.0101687   0.21440718  0.26934769  0.46911134  0.5624799
  0.57070499  0.84514148  0.88549815  1.21361956  1.24822454  1.68231463]
   2 ( 0.500 -0.000  0.000)   [-0.88239727 -0.76410531 -0.46178846 -0.30703166] [-0.04825824 -0.0101687   0.21440718  0.26934769  0.46911134  0.5624799
  0.57070499  0.84514148  0.88549815  1.21361956  1.24822454  1.68231463]
   3 ( 0.500  0.500  0.000)   [-0.87232815 -0.76382165 -0.46291172] [-0.09705321 -0.05205717 -0.03393429  0.21791912  0.26923233  0.4695181
  0.56292922  0.57330762  0.84863437  0.88471132  1.21283399  1.24799089
  1.68968   ]
    CPU time for get_k_kpts: make_kpt ki>=kj (0,*)      2.32 sec, wall time      0.11 sec
    CPU time for get_k_kpts: make_kpt ki>=kj (1,*)      0.33 sec, wall time      0.04 sec
    CPU time for get_k_kpts: make_kpt ki>=kj (2,*)      0.35 sec, wall time      0.03 sec
    CPU time for get_k_kpts: make_kpt ki>=kj (3,*)      0.35 sec, wall time      0.03 sec
Monkhorst pack size [2 2 1] ew_eta 0.6684567992506761 ew_cut 9.794991494619481
Ewald components = 1.02852734780882e-37, -0.377136363188905, 0.220560012134261
    CPU time for get_j pass 1      2.29 sec, wall time      0.14 sec
    CPU time for get_j pass 2      0.21 sec, wall time      0.01 sec
    CPU time for vj and vk      6.15 sec, wall time      0.39 sec
Ewald components = 0.00297667713604692, -12.068363622045, -1.62339853813195
E1 = (10.922162403920677-3.4226072810812542e-18j)  E_coul = (-7.875737076572648+3.2962881678470534e-18j)
cycle= 3 E= -10.6423601556928  delta_E= -0.000148  |g|= 0.00734  |ddm|= 0.135
    CPU time for cycle= 3      6.45 sec, wall time      0.40 sec
diis-norm(errvec)=0.012256
diis-c [-5.31870455e-05+4.48415509e-44j -4.32521422e-03-1.65307951e-27j
 -2.74520480e-01-4.60876191e-26j  1.27884569e+00+4.77406986e-26j]
Removing linearly dependent bfns: method= canonical-orth threshold= 1.0e-07 N(tot)=   16 N(removed)=   0
Removing linearly dependent bfns: method= canonical-orth threshold= 1.0e-07 N(tot)=   16 N(removed)=   0
Removing linearly dependent bfns: method= canonical-orth threshold= 1.0e-07 N(tot)=   16 N(removed)=   0
Removing linearly dependent bfns: method= canonical-orth threshold= 1.0e-07 N(tot)=   16 N(removed)=   0
HOMO = -0.309618563019  LUMO = -0.0997209574757
     k-point                  mo_energy
   0 ( 0.000  0.000  0.000)   [-0.98193353 -0.47197945 -0.42139355 -0.41993683 -0.40176917] [0.12421748 0.12425284 0.12488429 0.45405424 0.58407803 0.8058543
 0.80662053 0.96692405 1.07867354 1.08137413 1.82429544]
   1 ( 0.000  0.500  0.000)   [-0.88568113 -0.76732987 -0.46611781 -0.30961856] [-0.05143946 -0.01288779  0.21022151  0.26506982  0.46615105  0.5601467
  0.5685138   0.8424865   0.88253211  1.21082244  1.24609846  1.67982182]
   2 ( 0.500 -0.000  0.000)   [-0.88568113 -0.76732987 -0.46611781 -0.30961856] [-0.05143946 -0.01288779  0.21022151  0.26506982  0.46615105  0.5601467
  0.5685138   0.8424865   0.88253211  1.21082244  1.24609846  1.67982182]
   3 ( 0.500  0.500  0.000)   [-0.87549453 -0.76712854 -0.46714157] [-0.09972096 -0.05540753 -0.03669104  0.21375208  0.26500052  0.46653096
  0.56061687  0.5709114   0.8462269   0.88171571  1.21008393  1.2457953
  1.68725415]
    CPU time for get_k_kpts: make_kpt ki>=kj (0,*)      2.02 sec, wall time      0.09 sec
    CPU time for get_k_kpts: make_kpt ki>=kj (1,*)      0.60 sec, wall time      0.04 sec
    CPU time for get_k_kpts: make_kpt ki>=kj (2,*)      0.34 sec, wall time      0.03 sec
    CPU time for get_k_kpts: make_kpt ki>=kj (3,*)      0.36 sec, wall time      0.02 sec
Monkhorst pack size [2 2 1] ew_eta 0.6684567992506761 ew_cut 9.794991494619481
Ewald components = 1.02852734780882e-37, -0.377136363188905, 0.220560012134261
    CPU time for get_j pass 1      2.01 sec, wall time      0.14 sec
    CPU time for get_j pass 2      0.39 sec, wall time      0.03 sec
    CPU time for vj and vk      6.18 sec, wall time      0.38 sec
Ewald components = 0.00297667713604692, -12.068363622045, -1.62339853813195
E1 = (10.921140977829815+5.005871557052994e-18j)  E_coul = (-7.874726078641253-4.666302490168929e-18j)
cycle= 4 E= -10.6423705838523  delta_E= -1.04e-05  |g|= 0.00133  |ddm|= 0.0264
    CPU time for cycle= 4      6.52 sec, wall time      0.40 sec
diis-norm(errvec)=0.00295201
diis-c [-1.36054209e-07-3.85637337e-42j  1.25628388e-02+1.12292900e-26j
  6.95463871e-02+3.96070484e-26j -6.00338947e-01-4.71006681e-25j
  1.51822972e+00+4.20170343e-25j]
Removing linearly dependent bfns: method= canonical-orth threshold= 1.0e-07 N(tot)=   16 N(removed)=   0
Removing linearly dependent bfns: method= canonical-orth threshold= 1.0e-07 N(tot)=   16 N(removed)=   0
Removing linearly dependent bfns: method= canonical-orth threshold= 1.0e-07 N(tot)=   16 N(removed)=   0
Removing linearly dependent bfns: method= canonical-orth threshold= 1.0e-07 N(tot)=   16 N(removed)=   0
HOMO = -0.309259249084  LUMO = -0.0993500980859
     k-point                  mo_energy
   0 ( 0.000  0.000  0.000)   [-0.98148435 -0.47125883 -0.42096215 -0.41957036 -0.40144246] [0.1246191  0.12471381 0.12529088 0.45433775 0.58438628 0.8062533
 0.8070129  0.96713526 1.07903507 1.0817233  1.82452104]
   1 ( 0.000  0.500  0.000)   [-0.88515143 -0.76680575 -0.46577834 -0.30925925] [-0.0510014  -0.01249508  0.2107381   0.26556083  0.46649064  0.56043107
  0.56878582  0.84282617  0.8828729   1.21117657  1.24637137  1.68010247]
   2 ( 0.500 -0.000  0.000)   [-0.88515143 -0.76680575 -0.46577834 -0.30925925] [-0.0510014  -0.01249508  0.2107381   0.26556083  0.46649064  0.56043107
  0.56878582  0.84282617  0.8828729   1.21117657  1.24637137  1.68010247]
   3 ( 0.500  0.500  0.000)   [-0.87493388 -0.76662671 -0.46677214] [-0.0993501  -0.05502731 -0.0363104   0.21426431  0.2655219   0.46685751
  0.5608892   0.57120915  0.84657423  0.88205713  1.21044476  1.24606498
  1.68752122]
    CPU time for get_k_kpts: make_kpt ki>=kj (0,*)      1.93 sec, wall time      0.09 sec
    CPU time for get_k_kpts: make_kpt ki>=kj (1,*)      0.57 sec, wall time      0.05 sec
    CPU time for get_k_kpts: make_kpt ki>=kj (2,*)      0.94 sec, wall time      0.09 sec
    CPU time for get_k_kpts: make_kpt ki>=kj (3,*)      0.58 sec, wall time      0.05 sec
Monkhorst pack size [2 2 1] ew_eta 0.6684567992506761 ew_cut 9.794991494619481
Ewald components = 1.02852734780882e-37, -0.377136363188905, 0.220560012134261
    CPU time for get_j pass 1      2.25 sec, wall time      0.20 sec
    CPU time for get_j pass 2      0.20 sec, wall time      0.01 sec
    CPU time for vj and vk      6.79 sec, wall time      0.52 sec
Ewald components = 0.00297667713604692, -12.068363622045, -1.62339853813195
E1 = (10.921473056775774+4.985781666417284e-18j)  E_coul = (-7.875058645811941-7.275110252669686e-18j)
cycle= 5 E= -10.642371072077  delta_E= -4.88e-07  |g|= 0.000107  |ddm|= 0.00623
    CPU time for cycle= 5      7.08 sec, wall time      0.54 sec
diis-norm(errvec)=0.000101135
diis-c [-1.93436699e-09+7.46163406e-41j -3.55493274e-03+1.34710320e-25j
 -1.61653274e-02+8.18907891e-25j  1.52640321e-01-6.72508985e-24j
 -4.03995647e-01+1.68714089e-23j  1.27107559e+00-1.10999372e-23j]
Removing linearly dependent bfns: method= canonical-orth threshold= 1.0e-07 N(tot)=   16 N(removed)=   0
Removing linearly dependent bfns: method= canonical-orth threshold= 1.0e-07 N(tot)=   16 N(removed)=   0
Removing linearly dependent bfns: method= canonical-orth threshold= 1.0e-07 N(tot)=   16 N(removed)=   0
Removing linearly dependent bfns: method= canonical-orth threshold= 1.0e-07 N(tot)=   16 N(removed)=   0
HOMO = -0.309274748228  LUMO = -0.0993608725776
     k-point                  mo_energy
   0 ( 0.000  0.000  0.000)   [-0.98149571 -0.47126197 -0.42096916 -0.41958386 -0.40145548] [0.12460882 0.1246971  0.12528459 0.45432993 0.58438833 0.80624741
 0.8070077  0.96713046 1.07903177 1.08171821 1.82452178]
   1 ( 0.000  0.500  0.000)   [-0.88516318 -0.76681953 -0.46579228 -0.30927475] [-0.05100642 -0.01250754  0.2107348   0.26555171  0.46649262  0.56042411
  0.56877768  0.84282597  0.88287021  1.21117061  1.24637159  1.68010049]
   2 ( 0.500 -0.000  0.000)   [-0.88516318 -0.76681953 -0.46579228 -0.30927475] [-0.05100642 -0.01250754  0.2107348   0.26555171  0.46649262  0.56042411
  0.56877768  0.84282597  0.88287021  1.21117061  1.24637159  1.68010049]
   3 ( 0.500  0.500  0.000)   [-0.87494899 -0.76664006 -0.46678234] [-0.09936087 -0.05503537 -0.0363236   0.214259    0.26551735  0.46685646
  0.56088171  0.57120176  0.84657322  0.88205557  1.21043877  1.2460654
  1.68751749]
    CPU time for get_k_kpts: make_kpt ki>=kj (0,*)      2.60 sec, wall time      0.11 sec
    CPU time for get_k_kpts: make_kpt ki>=kj (1,*)      0.22 sec, wall time      0.02 sec
    CPU time for get_k_kpts: make_kpt ki>=kj (2,*)      0.30 sec, wall time      0.02 sec
    CPU time for get_k_kpts: make_kpt ki>=kj (3,*)      0.35 sec, wall time      0.03 sec
Monkhorst pack size [2 2 1] ew_eta 0.6684567992506761 ew_cut 9.794991494619481
Ewald components = 1.02852734780882e-37, -0.377136363188905, 0.220560012134261
    CPU time for get_j pass 1      2.28 sec, wall time      0.15 sec
    CPU time for get_j pass 2      0.38 sec, wall time      0.03 sec
    CPU time for vj and vk      6.61 sec, wall time      0.38 sec
Ewald components = 0.00297667713604692, -12.068363622045, -1.62339853813195
E1 = (10.921433360125224+1.6996355600596375e-18j)  E_coul = (-7.875018950706195-3.541768438578746e-18j)
cycle= 6 E= -10.6423710736218  delta_E= -1.54e-09  |g|= 1.08e-05  |ddm|= 0.000679
    CPU time for cycle= 6      7.04 sec, wall time      0.41 sec
Removing linearly dependent bfns: method= canonical-orth threshold= 1.0e-07 N(tot)=   16 N(removed)=   0
Removing linearly dependent bfns: method= canonical-orth threshold= 1.0e-07 N(tot)=   16 N(removed)=   0
Removing linearly dependent bfns: method= canonical-orth threshold= 1.0e-07 N(tot)=   16 N(removed)=   0
Removing linearly dependent bfns: method= canonical-orth threshold= 1.0e-07 N(tot)=   16 N(removed)=   0
HOMO = -0.309273947666  LUMO = -0.0993604833451
     k-point                  mo_energy
   0 ( 0.000  0.000  0.000)   [-0.98149376 -0.47126082 -0.42096722 -0.41958292 -0.40145462] [0.12460936 0.12469777 0.12528612 0.45432953 0.58438904 0.80624798
 0.80700855 0.96713082 1.07903235 1.08171877 1.82452214]
   1 ( 0.000  0.500  0.000)   [-0.88516102 -0.76681701 -0.46579073 -0.30927395] [-0.05100504 -0.01250697  0.21073549  0.26555239  0.46649253  0.56042441
  0.56877767  0.84282676  0.88287056  1.21117138  1.246372    1.68010111]
   2 ( 0.500 -0.000  0.000)   [-0.88516102 -0.76681701 -0.46579073 -0.30927395] [-0.05100504 -0.01250697  0.21073549  0.26555239  0.46649253  0.56042441
  0.56877767  0.84282676  0.88287056  1.21117138  1.246372    1.68010111]
   3 ( 0.500  0.500  0.000)   [-0.87494653 -0.76663766 -0.46678015] [-0.09936048 -0.05503475 -0.03632282  0.21425885  0.26551893  0.46685631
  0.56088202  0.57120194  0.84657361  0.88205611  1.21043947  1.24606601
  1.68751819]
    CPU time for get_k_kpts: make_kpt ki>=kj (0,*)      2.12 sec, wall time      0.13 sec
    CPU time for get_k_kpts: make_kpt ki>=kj (1,*)      0.28 sec, wall time      0.03 sec
    CPU time for get_k_kpts: make_kpt ki>=kj (2,*)      0.36 sec, wall time      0.03 sec
    CPU time for get_k_kpts: make_kpt ki>=kj (3,*)      0.40 sec, wall time      0.03 sec
Monkhorst pack size [2 2 1] ew_eta 0.6684567992506761 ew_cut 9.794991494619481
Ewald components = 1.02852734780882e-37, -0.377136363188905, 0.220560012134261
    CPU time for get_j pass 1      2.21 sec, wall time      0.14 sec
    CPU time for get_j pass 2      0.21 sec, wall time      0.01 sec
    CPU time for vj and vk      6.05 sec, wall time      0.40 sec
Ewald components = 0.00297667713604692, -12.068363622045, -1.62339853813195
E1 = (10.92143130425312-2.508869522464142e-17j)  E_coul = (-7.875016894853777+1.5206902650046812e-17j)
Extra cycle  E= -10.6423710736415  delta_E= -1.97e-11  |g|= 3.53e-06  |ddm|= 5.48e-05
    CPU time for scf_cycle    128.22 sec, wall time     10.36 sec
    CPU time for SCF    128.45 sec, wall time     10.40 sec
converged SCF energy = -10.6423710736415
Starting mo_k2gamma
Orthogonality error of MOs= 6.64e-14

WARN: Non-degenerate MO   17 at E=  -0.05503475 Ha: ||Im(C)||= 1.39e-08 !


WARN: Non-degenerate MO   28 at E=  +0.21425885 Ha: ||Im(C)||= 1.84e-08 !


WARN: Non-degenerate MO   47 at E=  +0.84657361 Ha: ||Im(C)||= 1.37e-08 !

Number of MOs with imaginary coefficients: 37 out of 64
Imaginary parts of Fock matrix: ||Im(F)||= 1.49e-09  max|Im(F)|= 1.96e-10
Error of MO energies: ||dE||= 2.35e-13  max|dE|= 1.55e-13
Imaginary part in gamma-point MOs: max|Im(C)|= 1.02e-10
arg.atm = [[ 4 20  1 23  0  0]
 [ 4 24  1 27  0  0]
 [ 4 28  1 31  0  0]
 [ 4 32  1 35  0  0]
 [ 4 36  1 39  0  0]
 [ 4 40  1 43  0  0]
 [ 4 44  1 47  0  0]
 [ 4 48  1 51  0  0]]
arg.bas = [[ 0  0  4  1  0 52 56  0]
 [ 0  1  4  1  0 60 64  0]
 [ 1  0  4  1  0 52 56  0]
 [ 1  1  4  1  0 60 64  0]
 [ 2  0  4  1  0 52 56  0]
 [ 2  1  4  1  0 60 64  0]
 [ 3  0  4  1  0 52 56  0]
 [ 3  1  4  1  0 60 64  0]
 [ 4  0  4  1  0 52 56  0]
 [ 4  1  4  1  0 60 64  0]
 [ 5  0  4  1  0 52 56  0]
 [ 5  1  4  1  0 60 64  0]
 [ 6  0  4  1  0 52 56  0]
 [ 6  1  4  1  0 60 64  0]
 [ 7  0  4  1  0 52 56  0]
 [ 7  1  4  1  0 60 64  0]]
arg.env = [ 0.          0.          0.          0.          0.          0.
  0.          0.          0.          0.          0.          0.
  0.          0.          0.          0.          0.          0.
  0.          0.          3.3637125   1.94204032 18.89726125  0.
  6.727425    3.88408064 18.89726125  0.          6.727425    7.76816127
 18.89726125  0.         10.09113751  9.71020159 18.89726125  0.
 10.09113751  1.94204032 18.89726125  0.         13.45485001  3.88408064
 18.89726125  0.         13.45485001  7.76816127 18.89726125  0.
 16.81856251  9.71020159 18.89726125  0.          4.33623764  1.28818385
  0.40377671  0.11878777  1.13179715 -0.08939889 -0.8807207  -0.20266289
  4.33623764  1.28818385  0.40377671  0.11878777 -1.60299215 -1.11123874
 -0.44247981 -0.08255916]
ecpbas  = []
arg.atm = [[ 4 20  1 23  0  0]
 [ 4 24  1 27  0  0]
 [ 4 28  1 31  0  0]
 [ 4 32  1 35  0  0]
 [ 4 36  1 39  0  0]
 [ 4 40  1 43  0  0]
 [ 4 44  1 47  0  0]
 [ 4 48  1 51  0  0]]
arg.bas = [[ 0  0  4  1  0 52 56  0]
 [ 0  1  4  1  0 60 64  0]
 [ 1  0  4  1  0 52 56  0]
 [ 1  1  4  1  0 60 64  0]
 [ 2  0  4  1  0 52 56  0]
 [ 2  1  4  1  0 60 64  0]
 [ 3  0  4  1  0 52 56  0]
 [ 3  1  4  1  0 60 64  0]
 [ 4  0  4  1  0 52 56  0]
 [ 4  1  4  1  0 60 64  0]
 [ 5  0  4  1  0 52 56  0]
 [ 5  1  4  1  0 60 64  0]
 [ 6  0  4  1  0 52 56  0]
 [ 6  1  4  1  0 60 64  0]
 [ 7  0  4  1  0 52 56  0]
 [ 7  1  4  1  0 60 64  0]]
arg.env = [ 0.          0.          0.          0.          0.          0.
  0.          0.          0.          0.          0.          0.
  0.          0.          0.          0.          0.          0.
  0.          0.          3.3637125   1.94204032 18.89726125  0.
  6.727425    3.88408064 18.89726125  0.          6.727425    7.76816127
 18.89726125  0.         10.09113751  9.71020159 18.89726125  0.
 10.09113751  1.94204032 18.89726125  0.         13.45485001  3.88408064
 18.89726125  0.         13.45485001  7.76816127 18.89726125  0.
 16.81856251  9.71020159 18.89726125  0.          4.33623764  1.28818385
  0.40377671  0.11878777  1.13179715 -0.08939889 -0.8807207  -0.20266289
  4.33623764  1.28818385  0.40377671  0.11878777 -1.60299215 -1.11123874
 -0.44247981 -0.08255916]
ecpbas  = []

******** <class 'pyscf.pbc.mp.mp2.RMP2'> ********
nocc = 16, nmo = 20
frozen orbitals [20, 21, 22, 23, 24, 25, 26, 27, 28, 29, 30, 31, 32, 33, 34, 35, 36, 37, 38, 39, 40, 41, 42, 43, 44, 45, 46, 47, 48, 49, 50, 51, 52, 53, 54, 55, 56, 57, 58, 59, 60, 61, 62, 63]
max_memory 64000 MB (current use 461 MB)
E(RMP2) = -42.7129708780325  E_corr = -0.143486583466417

******** <class 'pyscf.pbc.mp.mp2.RMP2'> ********
nocc = 4, nmo = 52
frozen orbitals [0, 1, 2, 3, 4, 5, 6, 7, 8, 9, 10, 11]
max_memory 64000 MB (current use 462 MB)
E(RMP2) = -42.7524027805895  E_corr = -0.182918486023425
arg.atm = [[ 4 20  1 23  0  0]
 [ 4 24  1 27  0  0]]
arg.bas = [[ 0  0  4  2  0 28 32  0]
 [ 0  1  4  2  0 40 44  0]
 [ 1  0  4  2  0 28 32  0]
 [ 1  1  4  2  0 40 44  0]]
arg.env = [ 0.          0.          0.          0.          0.          0.
  0.          0.          0.          0.          0.          0.
  0.          0.          0.          0.          0.          0.
  0.          0.          3.3637125   1.94204032 18.89726125  0.
  6.727425    3.88408064 18.89726125  0.          4.33623764  1.28818385
  0.40377671  0.11878777  1.13179715 -0.08939889 -0.8807207  -0.20266289
  0.          0.          0.          0.51120349  4.33623764  1.28818385
  0.40377671  0.11878777 -1.60299215 -1.11123874 -0.44247981 -0.08255916
  0.          0.          0.          0.20344594]
ecpbas  = []
System: uname_result(system='Linux', node='zombie', release='4.4.0-203-generic', version='#235-Ubuntu SMP Tue Feb 2 02:49:08 UTC 2021', machine='x86_64', processor='x86_64')  Threads 16
Python 3.8.8 (default, Feb 20 2021, 21:11:43) 
[GCC 5.4.0 20160609]
numpy 1.20.1  scipy 1.6.1
Date: Thu Jun 17 12:41:00 2021
PySCF version 2.0.0a
PySCF path  /home/max/git/pyscf
GIT ORIG_HEAD d2ceb2195974a7f36708b894e68b4c363b18e101
GIT HEAD (branch master) d2ceb2195974a7f36708b894e68b4c363b18e101

[ENV] PYSCFHOME /home/max/git/pyscf
[ENV] PYSCF_MAX_MEMORY 64000
[CONFIG] DEBUG = False
[CONFIG] MAX_MEMORY = 64000
[CONFIG] TMPDIR = .
[CONFIG] UNIT = angstrom
[CONFIG] VERBOSE = 3
[CONFIG] conf_file = None
[INPUT] verbose = 10
[INPUT] max_memory = 64000 
[INPUT] num. atoms = 2
[INPUT] num. electrons = 8
[INPUT] charge = 0
[INPUT] spin (= nelec alpha-beta = 2S) = 0
[INPUT] symmetry False subgroup None
[INPUT] Mole.unit = angstrom
[INPUT]  1 C      1.780000000000   1.027683479158  10.000000000000 AA    3.363712501726   1.942040318348  18.897261245651 Bohr
[INPUT]  2 C      3.560000000000   2.055366958315  10.000000000000 AA    6.727425003452   3.884080636696  18.897261245651 Bohr
[INPUT] ---------------- BASIS SET ---------------- 
[INPUT] l, kappa, [nprim/nctr], expnt,             c_1 c_2 ...
[INPUT] C
[INPUT] 0    0    [4    /2   ]  4.3362376436      0.1490797872    0
                                1.2881838513      -0.0292640031    0
                                0.4037767149      -0.688204051    0
                                0.1187877657      -0.3964426906    1
[INPUT] 1    0    [4    /2   ]  4.3362376436      -0.0878123619    0
                                1.2881838513      -0.27755603    0
                                0.4037767149      -0.4712295093    0
                                0.1187877657      -0.4058039291    1

Ewald components = 0.00297667713604692, -12.068363622045, -1.62339853813195
nuclear repulsion = -13.6887854830409
number of shells = 4
number of NR pGTOs = 32
number of NR cGTOs = 16
basis = gth-dzv
ecp = {}
bas 0, expnt(s) = [4.33623764 1.28818385 0.40377671 0.11878777]
bas 1, expnt(s) = [4.33623764 1.28818385 0.40377671 0.11878777]
bas 2, expnt(s) = [4.33623764 1.28818385 0.40377671 0.11878777]
bas 3, expnt(s) = [4.33623764 1.28818385 0.40377671 0.11878777]
CPU time:         1.54
lattice vectors  a1 [6.727425003, 0.000000000, 0.000000000]
                 a2 [3.363712502, 5.826120955, 0.000000000]
                 a3 [0.000000000, 0.000000000, 37.794522491]
dimension = 2
low_dim_ft_type = None
Cell volume = 1481.35
rcut = 20.60710622719259 (nimgs = [4 4 1])
lattice sum = 69 cells
precision = 1e-08
pseudo = gth-pade
ke_cutoff = 257.0619664735998
    = [ 43  43 273] mesh (504777 PWs)
eta_guess = 0.2


******** <class 'pyscf.pbc.scf.khf.KRHF'> ********
method = KRHF-KSCF-RHF-SCF-RHF
initial guess = minao
damping factor = 0
level_shift factor = 0
DIIS = <class 'pyscf.scf.diis.CDIIS'>
diis_start_cycle = 1
diis_space = 8
SCF conv_tol = 1e-07
SCF conv_tol_grad = None
SCF max_cycles = 50
direct_scf = True
direct_scf_tol = 1e-13
chkfile to save SCF result = /home/max/git/vayesta/vayesta/ewf/test/tmpgn628t8s
max_memory 64000 MB (current use 87 MB)


******** PBC SCF flags ********
N kpts = 4
kpts = [[ 0.          0.          0.        ]
 [ 0.          0.53922544  0.        ]
 [ 0.46698293 -0.26961272  0.        ]
 [ 0.46698293  0.26961272  0.        ]]
Exchange divergence treatment (exxdiv) = ewald
Monkhorst pack size [2 2 1] ew_eta 0.6684567992506761 ew_cut 9.794991494619481
Ewald components = 1.02852734780882e-37, -0.377136363188905, 0.220560012134261
    madelung (= occupied orbital energy shift) = 0.3131527021092875
    Total energy shift due to Ewald probe charge = -1/2 * Nelec*madelung = -1.25261080844
DF object = <pyscf.pbc.df.df.GDF object at 0x7f4e1595b940>
Set gradient conv threshold to 0.000316228
Big error detected in the electron number of initial guess density matrix (Ne/cell = 7.99956)!
  This can cause huge error in Fock matrix and lead to instability in SCF for low-dimensional systems.
  DM is normalized wrt the number of electrons 8.0
    CPU time for vnuc pass1: analytic int      0.48 sec, wall time      0.05 sec
    CPU time for contracting Vnuc [0:3328]      4.56 sec, wall time      0.65 sec
    CPU time for contracting Vnuc      4.56 sec, wall time      0.65 sec
    CPU time for get_pp_loc_part1      5.10 sec, wall time      0.71 sec
    CPU time for get_pp_loc_part2      0.48 sec, wall time      0.04 sec
    CPU time for get_pp_nl      0.06 sec, wall time      0.00 sec
    CPU time for get_pp      5.64 sec, wall time      0.75 sec


******** <class 'pyscf.pbc.df.df.GDF'> ********
mesh = [9, 9, 53] (4293 PWs)
auxbasis = None
eta = 0.2
exp_to_discard = None
_cderi_to_save = /home/max/git/vayesta/vayesta/ewf/test/tmphipexgsz
len(kpts) = 4
    kpts = [[ 0.          0.          0.        ]
 [ 0.          0.53922544  0.        ]
 [ 0.46698293 -0.26961272  0.        ]
 [ 0.46698293  0.26961272  0.        ]]
Even tempered Gaussians are generated as DF auxbasis for  C
  ETB auxbasis for C  [[0, [7.6024170048, 1]], [0, [3.8012085024, 1]], [0, [1.9006042512, 1]], [0, [0.9503021256, 1]], [0, [0.4751510628, 1]], [0, [0.2375755314, 1]], [1, [7.6024170048, 1]], [1, [3.8012085024, 1]], [1, [1.9006042512, 1]], [1, [0.9503021256, 1]], [1, [0.4751510628, 1]], [1, [0.2375755314, 1]], [2, [7.6024170048, 1]], [2, [3.8012085024, 1]], [2, [1.9006042512, 1]], [2, [0.9503021256, 1]], [2, [0.4751510628, 1]], [2, [0.2375755314, 1]]]
num shells = 36, num cGTOs = 108
Drop 0 primitive fitting functions
make aux basis, num shells = 36, num cGTOs = 108
auxcell.rcut 11.74299217792449
make compensating basis, num shells = 6, num cGTOs = 18
chgcell.rcut 17.56600021401809
    CPU time for 3c2e      4.12 sec, wall time      0.68 sec
Num uniq kpts 5
uniq_kpts [[ 0.          0.          0.        ]
 [ 0.         -0.53922544  0.        ]
 [-0.46698293  0.26961272  0.        ]
 [-0.46698293  0.80883816  0.        ]
 [-0.46698293 -0.26961272  0.        ]]
max_memory 63848.513536 (MB)  blocksize 15835444
Cholesky decomposition for j2c at kpt 0
DF metric linear dependency for kpt 0: cond= -3.434 dropping 1 bfns
2D system: Adding 1 bfns to j2c_negative
Symmetry pattern (k - [0. 0. 0.])*a= 2n pi
    make_kpt for uniq_kptji_ids [0]
kpt = [0. 0. 0.]
adapted_ji_idx = [0 2 5 9]
memory = 180.40832
int3c2e [1/1], AO [0:4], ncol = 136
Symmetry pattern (k + [0. 0. 0.])*a= 2n pi
    make_kpt for [0]
Cholesky decomposition for j2c at kpt 1
Symmetry pattern (k - [ 0.         -0.53922544  0.        ])*a= 2n pi
    make_kpt for uniq_kptji_ids [1]
kpt = [ 0.         -0.53922544  0.        ]
adapted_ji_idx = [1 8]
memory = 264.466432
int3c2e [1/1], AO [0:4], ncol = 256
Symmetry pattern (k + [ 0.         -0.53922544  0.        ])*a= 2n pi
    make_kpt for [1]
Cholesky decomposition for j2c at kpt 2
Symmetry pattern (k - [-0.46698293  0.26961272  0.        ])*a= 2n pi
    make_kpt for uniq_kptji_ids [2]
kpt = [-0.46698293  0.26961272  0.        ]
adapted_ji_idx = [3 7]
memory = 352.223232
int3c2e [1/1], AO [0:4], ncol = 256
Symmetry pattern (k + [-0.46698293  0.26961272  0.        ])*a= 2n pi
    make_kpt for [2]
Cholesky decomposition for j2c at kpt 3
Symmetry pattern (k - [-0.46698293  0.80883816  0.        ])*a= 2n pi
    make_kpt for uniq_kptji_ids [3 4]
kpt = [-0.46698293  0.80883816  0.        ]
adapted_ji_idx = [4]
memory = 372.404224
int3c2e [1/1], AO [0:4], ncol = 256
kpt = [-0.46698293 -0.26961272  0.        ]
adapted_ji_idx = [6]
memory = 384.63488
int3c2e [1/1], AO [0:4], ncol = 256
Symmetry pattern (k + [-0.46698293  0.80883816  0.        ])*a= 2n pi
    make_kpt for [3 4]
    CPU time for j3c     63.50 sec, wall time      5.32 sec
    CPU time for Init get_k_kpts     63.56 sec, wall time      5.33 sec
    CPU time for get_k_kpts: make_kpt ki>=kj (0,*)      1.25 sec, wall time      0.16 sec
    CPU time for get_k_kpts: make_kpt ki>=kj (1,*)      1.19 sec, wall time      0.10 sec
    CPU time for get_k_kpts: make_kpt ki>=kj (2,*)      2.24 sec, wall time      0.20 sec
    CPU time for get_k_kpts: make_kpt ki>=kj (3,*)      0.66 sec, wall time      0.05 sec
Monkhorst pack size [2 2 1] ew_eta 0.6684567992506761 ew_cut 9.794991494619481
Ewald components = 1.02852734780882e-37, -0.377136363188905, 0.220560012134261
    CPU time for get_j pass 1      2.37 sec, wall time      0.13 sec
    CPU time for get_j pass 2      0.24 sec, wall time      0.02 sec
    CPU time for vj and vk     71.95 sec, wall time      6.04 sec
Ewald components = 0.00297667713604692, -12.068363622045, -1.62339853813195
E1 = (10.82656353175587+2.313092997271024e-18j)  E_coul = (-7.5360457257330715+4.105593162119704e-32j)
init E= -10.3982676770181
cond(S) = [ 445.20556212 2130.37440258 2130.37440258 2130.37440258]
    CPU time for initialize scf     80.00 sec, wall time      6.93 sec
Removing linearly dependent bfns: method= canonical-orth threshold= 1.0e-07 N(tot)=   16 N(removed)=   0
Removing linearly dependent bfns: method= canonical-orth threshold= 1.0e-07 N(tot)=   16 N(removed)=   0
Removing linearly dependent bfns: method= canonical-orth threshold= 1.0e-07 N(tot)=   16 N(removed)=   0
Removing linearly dependent bfns: method= canonical-orth threshold= 1.0e-07 N(tot)=   16 N(removed)=   0
HOMO = -0.158672638007  LUMO = -0.158672638006

WARN: HOMO -0.158672638007 == LUMO -0.158672638006

     k-point                  mo_energy
   0 ( 0.000  0.000  0.000)   [-1.13657808 -0.37109927 -0.28395118 -0.19996781 -0.19996781] [0.08898569 0.0918799  0.0918799  0.47327955 0.60234359 0.82628907
 0.82628907 0.97823332 1.10202628 1.10202628 1.83621995]
   1 ( 0.000  0.500  0.000)   [-0.92292361 -0.75269467 -0.28284568 -0.15867264] [-0.11201138 -0.05438133  0.20237771  0.24980312  0.49526741  0.57002281
  0.58379983  0.86642392  0.90894608  1.2320769   1.25990353  1.70093673]
   2 ( 0.500 -0.000  0.000)   [-0.92292361 -0.75269467 -0.28284568 -0.15867264] [-0.11201138 -0.05438133  0.20237771  0.24980312  0.49526741  0.57002281
  0.58379983  0.86642392  0.90894608  1.2320769   1.25990353  1.70093673]
   3 ( 0.500  0.500  0.000)   [-0.92292361 -0.75269467 -0.28284568] [-0.15867264 -0.11201138 -0.05438133  0.20237771  0.24980312  0.49526741
  0.57002281  0.58379983  0.86642392  0.90894608  1.2320769   1.25990353
  1.70093673]
    CPU time for get_k_kpts: make_kpt ki>=kj (0,*)      2.26 sec, wall time      0.14 sec
    CPU time for get_k_kpts: make_kpt ki>=kj (1,*)      0.29 sec, wall time      0.02 sec
    CPU time for get_k_kpts: make_kpt ki>=kj (2,*)      0.36 sec, wall time      0.02 sec
    CPU time for get_k_kpts: make_kpt ki>=kj (3,*)      0.38 sec, wall time      0.02 sec
Monkhorst pack size [2 2 1] ew_eta 0.6684567992506761 ew_cut 9.794991494619481
Ewald components = 1.02852734780882e-37, -0.377136363188905, 0.220560012134261
    CPU time for get_j pass 1      2.19 sec, wall time      0.17 sec
    CPU time for get_j pass 2      0.20 sec, wall time      0.01 sec
    CPU time for vj and vk      6.06 sec, wall time      0.41 sec
Ewald components = 0.00297667713604692, -12.068363622045, -1.62339853813195
E1 = (11.053139551631125-9.797665876456715e-19j)  E_coul = (-8.002255211218264-9.432508545990666e-19j)
cycle= 1 E= -10.637901142628  delta_E= -0.24  |g|=  0.2  |ddm|= 4.56
    CPU time for cycle= 1      6.36 sec, wall time      0.43 sec
diis-norm(errvec)=0.247611
diis-c [-0.061311+0.j  1.      +0.j]
Removing linearly dependent bfns: method= canonical-orth threshold= 1.0e-07 N(tot)=   16 N(removed)=   0
Removing linearly dependent bfns: method= canonical-orth threshold= 1.0e-07 N(tot)=   16 N(removed)=   0
Removing linearly dependent bfns: method= canonical-orth threshold= 1.0e-07 N(tot)=   16 N(removed)=   0
Removing linearly dependent bfns: method= canonical-orth threshold= 1.0e-07 N(tot)=   16 N(removed)=   0
HOMO = -0.322674491847  LUMO = -0.113524179246
     k-point                  mo_energy
   0 ( 0.000  0.000  0.000)   [-0.99833343 -0.49372006 -0.43629597 -0.43362212 -0.41388027] [0.10709069 0.107341   0.10838879 0.44290446 0.57316408 0.79207738
 0.7930931  0.9579694  1.06450267 1.06764047 1.81451626]
   1 ( 0.000  0.500  0.000)   [-0.90204052 -0.78427778 -0.4799604  -0.32267449] [-0.06883065 -0.0272297   0.19042793  0.24578308  0.45425977  0.5485262
  0.55734941  0.83077059  0.86994587  1.19901028  1.23547675  1.66878523]
   2 ( 0.500 -0.000  0.000)   [-0.90204052 -0.78427778 -0.4799604  -0.32267449] [-0.06883065 -0.0272297   0.19042793  0.24578308  0.45425977  0.5485262
  0.55734941  0.83077059  0.86994587  1.19901028  1.23547675  1.66878523]
   3 ( 0.500  0.500  0.000)   [-0.89227951 -0.7833332  -0.48150105] [-0.11352418 -0.07261362 -0.05042445  0.194017    0.24561499  0.45482978
  0.54934238  0.55905648  0.83421619  0.86917279  1.19797899  1.23541302
  1.6766285 ]
    CPU time for get_k_kpts: make_kpt ki>=kj (0,*)      2.46 sec, wall time      0.11 sec
    CPU time for get_k_kpts: make_kpt ki>=kj (1,*)      0.89 sec, wall time      0.07 sec
    CPU time for get_k_kpts: make_kpt ki>=kj (2,*)      0.88 sec, wall time      0.08 sec
    CPU time for get_k_kpts: make_kpt ki>=kj (3,*)      0.65 sec, wall time      0.06 sec
Monkhorst pack size [2 2 1] ew_eta 0.6684567992506761 ew_cut 9.794991494619481
Ewald components = 1.02852734780882e-37, -0.377136363188905, 0.220560012134261
    CPU time for get_j pass 1      2.03 sec, wall time      0.15 sec
    CPU time for get_j pass 2      0.21 sec, wall time      0.01 sec
    CPU time for vj and vk      7.61 sec, wall time      0.51 sec
Ewald components = 0.00297667713604692, -12.068363622045, -1.62339853813195
E1 = (10.910118759183213-1.9686186944949472e-17j)  E_coul = (-7.8635453915196045+1.0565950402215898e-17j)
cycle= 2 E= -10.6422121153773  delta_E= -0.00431  |g|= 0.0333  |ddm|= 0.576
    CPU time for cycle= 2      7.98 sec, wall time      0.53 sec
diis-norm(errvec)=0.0440876
diis-c [-0.00155139+0.00000000e+00j -0.08816913-6.00228572e-27j
  1.08816913+6.00228572e-27j]
Removing linearly dependent bfns: method= canonical-orth threshold= 1.0e-07 N(tot)=   16 N(removed)=   0
Removing linearly dependent bfns: method= canonical-orth threshold= 1.0e-07 N(tot)=   16 N(removed)=   0
Removing linearly dependent bfns: method= canonical-orth threshold= 1.0e-07 N(tot)=   16 N(removed)=   0
Removing linearly dependent bfns: method= canonical-orth threshold= 1.0e-07 N(tot)=   16 N(removed)=   0
HOMO = -0.307031656285  LUMO = -0.0970532143337
     k-point                  mo_energy
   0 ( 0.000  0.000  0.000)   [-0.97866822 -0.46948967 -0.41717244 -0.41547562 -0.39928554] [0.1274704  0.12789538 0.12865875 0.45625914 0.58627292 0.80906729
 0.80985632 0.96887278 1.08178264 1.08450489 1.82632229]
   1 ( 0.000  0.500  0.000)   [-0.88239727 -0.76410531 -0.46178846 -0.30703166] [-0.04825824 -0.0101687   0.21440718  0.26934769  0.46911134  0.5624799
  0.57070499  0.84514148  0.88549815  1.21361956  1.24822454  1.68231463]
   2 ( 0.500 -0.000  0.000)   [-0.88239727 -0.76410531 -0.46178846 -0.30703166] [-0.04825824 -0.0101687   0.21440718  0.26934769  0.46911134  0.5624799
  0.57070499  0.84514148  0.88549815  1.21361956  1.24822454  1.68231463]
   3 ( 0.500  0.500  0.000)   [-0.87232815 -0.76382165 -0.46291172] [-0.09705321 -0.05205717 -0.03393429  0.21791912  0.26923233  0.4695181
  0.56292922  0.57330762  0.84863437  0.88471132  1.21283399  1.24799089
  1.68968   ]
    CPU time for get_k_kpts: make_kpt ki>=kj (0,*)      2.86 sec, wall time      0.15 sec
    CPU time for get_k_kpts: make_kpt ki>=kj (1,*)      0.51 sec, wall time      0.07 sec
    CPU time for get_k_kpts: make_kpt ki>=kj (2,*)      0.34 sec, wall time      0.04 sec
    CPU time for get_k_kpts: make_kpt ki>=kj (3,*)      0.68 sec, wall time      0.07 sec
Monkhorst pack size [2 2 1] ew_eta 0.6684567992506761 ew_cut 9.794991494619481
Ewald components = 1.02852734780882e-37, -0.377136363188905, 0.220560012134261
    CPU time for get_j pass 1      2.22 sec, wall time      0.16 sec
    CPU time for get_j pass 2      0.23 sec, wall time      0.02 sec
    CPU time for vj and vk      7.40 sec, wall time      0.55 sec
Ewald components = 0.00297667713604692, -12.068363622045, -1.62339853813195
E1 = (10.922162403920682+4.221328796348973e-18j)  E_coul = (-7.87573707657265-3.928172833637251e-18j)
cycle= 3 E= -10.6423601556928  delta_E= -0.000148  |g|= 0.00734  |ddm|= 0.135
    CPU time for cycle= 3      7.73 sec, wall time      0.57 sec
diis-norm(errvec)=0.012256
diis-c [-5.31870455e-05+8.96831017e-44j -4.32521422e-03+3.55300967e-27j
 -2.74520480e-01+6.80917730e-27j  1.27884569e+00-1.03621870e-26j]
Removing linearly dependent bfns: method= canonical-orth threshold= 1.0e-07 N(tot)=   16 N(removed)=   0
Removing linearly dependent bfns: method= canonical-orth threshold= 1.0e-07 N(tot)=   16 N(removed)=   0
Removing linearly dependent bfns: method= canonical-orth threshold= 1.0e-07 N(tot)=   16 N(removed)=   0
Removing linearly dependent bfns: method= canonical-orth threshold= 1.0e-07 N(tot)=   16 N(removed)=   0
HOMO = -0.309618563019  LUMO = -0.0997209574757
     k-point                  mo_energy
   0 ( 0.000  0.000  0.000)   [-0.98193353 -0.47197945 -0.42139355 -0.41993683 -0.40176917] [0.12421748 0.12425284 0.12488429 0.45405424 0.58407803 0.8058543
 0.80662053 0.96692405 1.07867354 1.08137413 1.82429544]
   1 ( 0.000  0.500  0.000)   [-0.88568113 -0.76732987 -0.46611781 -0.30961856] [-0.05143946 -0.01288779  0.21022151  0.26506982  0.46615105  0.5601467
  0.5685138   0.8424865   0.88253211  1.21082244  1.24609846  1.67982182]
   2 ( 0.500 -0.000  0.000)   [-0.88568113 -0.76732987 -0.46611781 -0.30961856] [-0.05143946 -0.01288779  0.21022151  0.26506982  0.46615105  0.5601467
  0.5685138   0.8424865   0.88253211  1.21082244  1.24609846  1.67982182]
   3 ( 0.500  0.500  0.000)   [-0.87549453 -0.76712854 -0.46714157] [-0.09972096 -0.05540753 -0.03669104  0.21375208  0.26500052  0.46653096
  0.56061687  0.5709114   0.8462269   0.88171571  1.21008393  1.2457953
  1.68725415]
    CPU time for get_k_kpts: make_kpt ki>=kj (0,*)      1.76 sec, wall time      0.08 sec
    CPU time for get_k_kpts: make_kpt ki>=kj (1,*)      0.75 sec, wall time      0.06 sec
    CPU time for get_k_kpts: make_kpt ki>=kj (2,*)      0.35 sec, wall time      0.03 sec
    CPU time for get_k_kpts: make_kpt ki>=kj (3,*)      0.32 sec, wall time      0.03 sec
Monkhorst pack size [2 2 1] ew_eta 0.6684567992506761 ew_cut 9.794991494619481
Ewald components = 1.02852734780882e-37, -0.377136363188905, 0.220560012134261
    CPU time for get_j pass 1      2.43 sec, wall time      0.14 sec
    CPU time for get_j pass 2      0.21 sec, wall time      0.01 sec
    CPU time for vj and vk      6.03 sec, wall time      0.36 sec
Ewald components = 0.00297667713604692, -12.068363622045, -1.62339853813195
E1 = (10.921140977829815+6.6956994433852724e-18j)  E_coul = (-7.874726078641256-5.322621399171744e-18j)
cycle= 4 E= -10.6423705838523  delta_E= -1.04e-05  |g|= 0.00133  |ddm|= 0.0264
    CPU time for cycle= 4      6.39 sec, wall time      0.38 sec
diis-norm(errvec)=0.00295201
diis-c [-1.36054209e-07-2.26449832e-42j  1.25628388e-02-3.05234739e-27j
  6.95463871e-02+6.87365020e-26j -6.00338947e-01-2.08037249e-25j
  1.51822972e+00+1.42353095e-25j]
Removing linearly dependent bfns: method= canonical-orth threshold= 1.0e-07 N(tot)=   16 N(removed)=   0
Removing linearly dependent bfns: method= canonical-orth threshold= 1.0e-07 N(tot)=   16 N(removed)=   0
Removing linearly dependent bfns: method= canonical-orth threshold= 1.0e-07 N(tot)=   16 N(removed)=   0
Removing linearly dependent bfns: method= canonical-orth threshold= 1.0e-07 N(tot)=   16 N(removed)=   0
HOMO = -0.309259249084  LUMO = -0.0993500980859
     k-point                  mo_energy
   0 ( 0.000  0.000  0.000)   [-0.98148435 -0.47125883 -0.42096215 -0.41957036 -0.40144246] [0.1246191  0.12471381 0.12529088 0.45433775 0.58438628 0.8062533
 0.8070129  0.96713526 1.07903507 1.0817233  1.82452104]
   1 ( 0.000  0.500  0.000)   [-0.88515143 -0.76680575 -0.46577834 -0.30925925] [-0.0510014  -0.01249508  0.2107381   0.26556083  0.46649064  0.56043107
  0.56878582  0.84282617  0.8828729   1.21117657  1.24637137  1.68010247]
   2 ( 0.500 -0.000  0.000)   [-0.88515143 -0.76680575 -0.46577834 -0.30925925] [-0.0510014  -0.01249508  0.2107381   0.26556083  0.46649064  0.56043107
  0.56878582  0.84282617  0.8828729   1.21117657  1.24637137  1.68010247]
   3 ( 0.500  0.500  0.000)   [-0.87493388 -0.76662671 -0.46677214] [-0.0993501  -0.05502731 -0.0363104   0.21426431  0.2655219   0.46685751
  0.5608892   0.57120915  0.84657423  0.88205713  1.21044476  1.24606498
  1.68752122]
    CPU time for get_k_kpts: make_kpt ki>=kj (0,*)      2.76 sec, wall time      0.13 sec
    CPU time for get_k_kpts: make_kpt ki>=kj (1,*)      0.30 sec, wall time      0.03 sec
    CPU time for get_k_kpts: make_kpt ki>=kj (2,*)      0.46 sec, wall time      0.05 sec
    CPU time for get_k_kpts: make_kpt ki>=kj (3,*)      0.47 sec, wall time      0.04 sec
Monkhorst pack size [2 2 1] ew_eta 0.6684567992506761 ew_cut 9.794991494619481
Ewald components = 1.02852734780882e-37, -0.377136363188905, 0.220560012134261
    CPU time for get_j pass 1      2.34 sec, wall time      0.14 sec
    CPU time for get_j pass 2      0.37 sec, wall time      0.02 sec
    CPU time for vj and vk      7.02 sec, wall time      0.43 sec
Ewald components = 0.00297667713604692, -12.068363622045, -1.62339853813195
E1 = (10.921473056775772+1.6264030373793878e-18j)  E_coul = (-7.875058645811937-5.231759486291703e-18j)
cycle= 5 E= -10.642371072077  delta_E= -4.88e-07  |g|= 0.000107  |ddm|= 0.00623
    CPU time for cycle= 5      7.35 sec, wall time      0.45 sec
diis-norm(errvec)=0.000101135
diis-c [-1.93436699e-09+1.14794370e-41j -3.55493274e-03+1.22334392e-24j
 -1.61653274e-02+6.81124853e-24j  1.52640321e-01-5.83929569e-23j
 -4.03995647e-01+1.46669953e-22j  1.27107559e+00-9.63115888e-23j]
Removing linearly dependent bfns: method= canonical-orth threshold= 1.0e-07 N(tot)=   16 N(removed)=   0
Removing linearly dependent bfns: method= canonical-orth threshold= 1.0e-07 N(tot)=   16 N(removed)=   0
Removing linearly dependent bfns: method= canonical-orth threshold= 1.0e-07 N(tot)=   16 N(removed)=   0
Removing linearly dependent bfns: method= canonical-orth threshold= 1.0e-07 N(tot)=   16 N(removed)=   0
HOMO = -0.309274748228  LUMO = -0.0993608725776
     k-point                  mo_energy
   0 ( 0.000  0.000  0.000)   [-0.98149571 -0.47126197 -0.42096916 -0.41958386 -0.40145548] [0.12460882 0.1246971  0.12528459 0.45432993 0.58438833 0.80624741
 0.8070077  0.96713046 1.07903177 1.08171821 1.82452178]
   1 ( 0.000  0.500  0.000)   [-0.88516318 -0.76681953 -0.46579228 -0.30927475] [-0.05100642 -0.01250754  0.2107348   0.26555171  0.46649262  0.56042411
  0.56877768  0.84282597  0.88287021  1.21117061  1.24637159  1.68010049]
   2 ( 0.500 -0.000  0.000)   [-0.88516318 -0.76681953 -0.46579228 -0.30927475] [-0.05100642 -0.01250754  0.2107348   0.26555171  0.46649262  0.56042411
  0.56877768  0.84282597  0.88287021  1.21117061  1.24637159  1.68010049]
   3 ( 0.500  0.500  0.000)   [-0.87494899 -0.76664006 -0.46678234] [-0.09936087 -0.05503537 -0.0363236   0.214259    0.26551735  0.46685646
  0.56088171  0.57120176  0.84657322  0.88205557  1.21043877  1.2460654
  1.68751749]
    CPU time for get_k_kpts: make_kpt ki>=kj (0,*)      2.54 sec, wall time      0.12 sec
    CPU time for get_k_kpts: make_kpt ki>=kj (1,*)      0.29 sec, wall time      0.03 sec
    CPU time for get_k_kpts: make_kpt ki>=kj (2,*)      0.33 sec, wall time      0.03 sec
    CPU time for get_k_kpts: make_kpt ki>=kj (3,*)      0.39 sec, wall time      0.03 sec
Monkhorst pack size [2 2 1] ew_eta 0.6684567992506761 ew_cut 9.794991494619481
Ewald components = 1.02852734780882e-37, -0.377136363188905, 0.220560012134261
    CPU time for get_j pass 1      2.32 sec, wall time      0.14 sec
    CPU time for get_j pass 2      0.37 sec, wall time      0.02 sec
    CPU time for vj and vk      6.52 sec, wall time      0.40 sec
Ewald components = 0.00297667713604692, -12.068363622045, -1.62339853813195
E1 = (10.921433360125222-1.3323930572222789e-17j)  E_coul = (-7.8750189507062+4.74281731722482e-18j)
cycle= 6 E= -10.6423710736218  delta_E= -1.54e-09  |g|= 1.08e-05  |ddm|= 0.000679
    CPU time for cycle= 6      7.03 sec, wall time      0.43 sec
Removing linearly dependent bfns: method= canonical-orth threshold= 1.0e-07 N(tot)=   16 N(removed)=   0
Removing linearly dependent bfns: method= canonical-orth threshold= 1.0e-07 N(tot)=   16 N(removed)=   0
Removing linearly dependent bfns: method= canonical-orth threshold= 1.0e-07 N(tot)=   16 N(removed)=   0
Removing linearly dependent bfns: method= canonical-orth threshold= 1.0e-07 N(tot)=   16 N(removed)=   0
HOMO = -0.309273947666  LUMO = -0.0993604833451
     k-point                  mo_energy
   0 ( 0.000  0.000  0.000)   [-0.98149376 -0.47126082 -0.42096722 -0.41958292 -0.40145462] [0.12460936 0.12469777 0.12528612 0.45432953 0.58438904 0.80624798
 0.80700855 0.96713082 1.07903235 1.08171877 1.82452214]
   1 ( 0.000  0.500  0.000)   [-0.88516102 -0.76681701 -0.46579073 -0.30927395] [-0.05100504 -0.01250697  0.21073549  0.26555239  0.46649253  0.56042441
  0.56877767  0.84282676  0.88287056  1.21117138  1.246372    1.68010111]
   2 ( 0.500 -0.000  0.000)   [-0.88516102 -0.76681701 -0.46579073 -0.30927395] [-0.05100504 -0.01250697  0.21073549  0.26555239  0.46649253  0.56042441
  0.56877767  0.84282676  0.88287056  1.21117138  1.246372    1.68010111]
   3 ( 0.500  0.500  0.000)   [-0.87494653 -0.76663766 -0.46678015] [-0.09936048 -0.05503475 -0.03632282  0.21425885  0.26551893  0.46685631
  0.56088202  0.57120194  0.84657361  0.88205611  1.21043947  1.24606601
  1.68751819]
    CPU time for get_k_kpts: make_kpt ki>=kj (0,*)      2.32 sec, wall time      0.17 sec
    CPU time for get_k_kpts: make_kpt ki>=kj (1,*)      1.26 sec, wall time      0.11 sec
    CPU time for get_k_kpts: make_kpt ki>=kj (2,*)      1.79 sec, wall time      0.15 sec
    CPU time for get_k_kpts: make_kpt ki>=kj (3,*)      0.58 sec, wall time      0.05 sec
Monkhorst pack size [2 2 1] ew_eta 0.6684567992506761 ew_cut 9.794991494619481
Ewald components = 1.02852734780882e-37, -0.377136363188905, 0.220560012134261
    CPU time for get_j pass 1      2.57 sec, wall time      0.19 sec
    CPU time for get_j pass 2      0.43 sec, wall time      0.03 sec
    CPU time for vj and vk      9.20 sec, wall time      0.71 sec
Ewald components = 0.00297667713604692, -12.068363622045, -1.62339853813195
E1 = (10.921431304253122+8.515257684105436e-18j)  E_coul = (-7.875016894853782-5.99633963877306e-18j)
Extra cycle  E= -10.6423710736415  delta_E= -1.97e-11  |g|= 3.53e-06  |ddm|= 5.48e-05
    CPU time for scf_cycle    132.56 sec, wall time     10.46 sec
    CPU time for SCF    132.80 sec, wall time     10.49 sec
converged SCF energy = -10.6423710736415
Starting mo_k2gamma
Orthogonality error of MOs= 8.39e-14

WARN: Non-degenerate MO   17 at E=  -0.05503475 Ha: ||Im(C)||= 1.39e-08 !


WARN: Non-degenerate MO   28 at E=  +0.21425885 Ha: ||Im(C)||= 1.84e-08 !


WARN: Non-degenerate MO   47 at E=  +0.84657361 Ha: ||Im(C)||= 1.37e-08 !

Number of MOs with imaginary coefficients: 37 out of 64
Imaginary parts of Fock matrix: ||Im(F)||= 1.49e-09  max|Im(F)|= 1.96e-10
Error of MO energies: ||dE||= 3.74e-13  max|dE|= 2.47e-13
Imaginary part in gamma-point MOs: max|Im(C)|= 1.02e-10
arg.atm = [[ 4 20  1 23  0  0]
 [ 4 24  1 27  0  0]
 [ 4 28  1 31  0  0]
 [ 4 32  1 35  0  0]
 [ 4 36  1 39  0  0]
 [ 4 40  1 43  0  0]
 [ 4 44  1 47  0  0]
 [ 4 48  1 51  0  0]]
arg.bas = [[ 0  0  4  1  0 52 56  0]
 [ 0  1  4  1  0 60 64  0]
 [ 1  0  4  1  0 52 56  0]
 [ 1  1  4  1  0 60 64  0]
 [ 2  0  4  1  0 52 56  0]
 [ 2  1  4  1  0 60 64  0]
 [ 3  0  4  1  0 52 56  0]
 [ 3  1  4  1  0 60 64  0]
 [ 4  0  4  1  0 52 56  0]
 [ 4  1  4  1  0 60 64  0]
 [ 5  0  4  1  0 52 56  0]
 [ 5  1  4  1  0 60 64  0]
 [ 6  0  4  1  0 52 56  0]
 [ 6  1  4  1  0 60 64  0]
 [ 7  0  4  1  0 52 56  0]
 [ 7  1  4  1  0 60 64  0]]
arg.env = [ 0.          0.          0.          0.          0.          0.
  0.          0.          0.          0.          0.          0.
  0.          0.          0.          0.          0.          0.
  0.          0.          3.3637125   1.94204032 18.89726125  0.
  6.727425    3.88408064 18.89726125  0.          6.727425    7.76816127
 18.89726125  0.         10.09113751  9.71020159 18.89726125  0.
 10.09113751  1.94204032 18.89726125  0.         13.45485001  3.88408064
 18.89726125  0.         13.45485001  7.76816127 18.89726125  0.
 16.81856251  9.71020159 18.89726125  0.          4.33623764  1.28818385
  0.40377671  0.11878777  1.13179715 -0.08939889 -0.8807207  -0.20266289
  4.33623764  1.28818385  0.40377671  0.11878777 -1.60299215 -1.11123874
 -0.44247981 -0.08255916]
ecpbas  = []
arg.atm = [[ 4 20  1 23  0  0]
 [ 4 24  1 27  0  0]
 [ 4 28  1 31  0  0]
 [ 4 32  1 35  0  0]
 [ 4 36  1 39  0  0]
 [ 4 40  1 43  0  0]
 [ 4 44  1 47  0  0]
 [ 4 48  1 51  0  0]]
arg.bas = [[ 0  0  4  1  0 52 56  0]
 [ 0  1  4  1  0 60 64  0]
 [ 1  0  4  1  0 52 56  0]
 [ 1  1  4  1  0 60 64  0]
 [ 2  0  4  1  0 52 56  0]
 [ 2  1  4  1  0 60 64  0]
 [ 3  0  4  1  0 52 56  0]
 [ 3  1  4  1  0 60 64  0]
 [ 4  0  4  1  0 52 56  0]
 [ 4  1  4  1  0 60 64  0]
 [ 5  0  4  1  0 52 56  0]
 [ 5  1  4  1  0 60 64  0]
 [ 6  0  4  1  0 52 56  0]
 [ 6  1  4  1  0 60 64  0]
 [ 7  0  4  1  0 52 56  0]
 [ 7  1  4  1  0 60 64  0]]
arg.env = [ 0.          0.          0.          0.          0.          0.
  0.          0.          0.          0.          0.          0.
  0.          0.          0.          0.          0.          0.
  0.          0.          3.3637125   1.94204032 18.89726125  0.
  6.727425    3.88408064 18.89726125  0.          6.727425    7.76816127
 18.89726125  0.         10.09113751  9.71020159 18.89726125  0.
 10.09113751  1.94204032 18.89726125  0.         13.45485001  3.88408064
 18.89726125  0.         13.45485001  7.76816127 18.89726125  0.
 16.81856251  9.71020159 18.89726125  0.          4.33623764  1.28818385
  0.40377671  0.11878777  1.13179715 -0.08939889 -0.8807207  -0.20266289
  4.33623764  1.28818385  0.40377671  0.11878777 -1.60299215 -1.11123874
 -0.44247981 -0.08255916]
ecpbas  = []

******** <class 'pyscf.pbc.mp.mp2.RMP2'> ********
nocc = 16, nmo = 20
frozen orbitals [20, 21, 22, 23, 24, 25, 26, 27, 28, 29, 30, 31, 32, 33, 34, 35, 36, 37, 38, 39, 40, 41, 42, 43, 44, 45, 46, 47, 48, 49, 50, 51, 52, 53, 54, 55, 56, 57, 58, 59, 60, 61, 62, 63]
max_memory 64000 MB (current use 425 MB)
E(RMP2) = -42.7129708780325  E_corr = -0.143486583466413

******** <class 'pyscf.pbc.mp.mp2.RMP2'> ********
nocc = 4, nmo = 52
frozen orbitals [0, 1, 2, 3, 4, 5, 6, 7, 8, 9, 10, 11]
max_memory 64000 MB (current use 425 MB)
E(RMP2) = -42.7524027805895  E_corr = -0.18291848602342
Monkhorst pack size [1 1 1] ew_eta 0.6684567992506761 ew_cut 9.794991494619481
Ewald components = 1.02852734780882e-37, -0.377136363188905, 0.220560012134261

******** <class 'pyscf.cc.ccsd.CCSD'> ********
CC2 = 0
CCSD nocc = 15, nmo = 41
frozen orbitals [0, 42, 43, 44, 45, 46, 47, 48, 49, 50, 51, 52, 53, 54, 55, 56, 57, 58, 59, 60, 61, 62, 63]
max_cycle = 50
direct = 0
conv_tol = 1e-07
conv_tol_normt = 1e-05
diis_space = 6
diis_start_cycle = 0
diis_start_energy_diff = 1e+09
max_memory 64000 MB (current use 425 MB)
total FLOPs 974649000.0
Init t2, MP2 energy = -43.3371509912335  E_corr(MP2) -0.767666696667336
    CPU time for init mp2      0.03 sec, wall time      0.00 sec
Init E_corr(CCSD) = -0.767666696667332
    CPU time for vvvv [0:7]      0.71 sec, wall time      0.03 sec
    CPU time for vvvv [7:14]      0.73 sec, wall time      0.03 sec
    CPU time for vvvv [14:21]      0.04 sec, wall time      0.00 sec
    CPU time for vvvv [21:26]      0.04 sec, wall time      0.00 sec
    CPU time for vvvv      1.55 sec, wall time      0.07 sec
max_memory 63574 MB,  nocc,nvir = 15,26  blksize = 26
    CPU time for vovv [0:26]      2.37 sec, wall time      0.13 sec
    CPU time for ovvv      2.42 sec, wall time      0.13 sec
max_memory 63574 MB,  nocc,nvir = 15,26  blksize = 26
    CPU time for voov [0:26]      1.05 sec, wall time      0.16 sec
    CPU time for update t1 t2      5.11 sec, wall time      0.37 sec
DIIS for step 0
cycle = 1  E_corr(CCSD) = -0.629482159121247  dE = 0.138184538  norm(t1,t2) = 0.192117
    CPU time for CCSD iter      5.35 sec, wall time      0.38 sec
    CPU time for vvvv [0:7]      0.04 sec, wall time      0.00 sec
    CPU time for vvvv [7:14]      0.28 sec, wall time      0.01 sec
    CPU time for vvvv [14:21]      2.32 sec, wall time      0.09 sec
    CPU time for vvvv [21:26]      1.35 sec, wall time      0.10 sec
    CPU time for vvvv      4.03 sec, wall time      0.20 sec
max_memory 63566 MB,  nocc,nvir = 15,26  blksize = 26
    CPU time for vovv [0:26]      1.09 sec, wall time      0.08 sec
    CPU time for ovvv      1.14 sec, wall time      0.09 sec
max_memory 63565 MB,  nocc,nvir = 15,26  blksize = 26
    CPU time for voov [0:26]      0.70 sec, wall time      0.10 sec
    CPU time for update t1 t2      5.97 sec, wall time      0.39 sec
diis-c [-0.01399426  1.        ]
DIIS for step 1
cycle = 2  E_corr(CCSD) = -0.730594994221097  dE = -0.101112835  norm(t1,t2) = 0.118297
    CPU time for CCSD iter      6.51 sec, wall time      0.42 sec
    CPU time for vvvv [0:7]      0.67 sec, wall time      0.03 sec
    CPU time for vvvv [7:14]      1.13 sec, wall time      0.04 sec
    CPU time for vvvv [14:21]      1.01 sec, wall time      0.04 sec
    CPU time for vvvv [21:26]      0.03 sec, wall time      0.00 sec
    CPU time for vvvv      2.87 sec, wall time      0.11 sec
max_memory 63559 MB,  nocc,nvir = 15,26  blksize = 26
    CPU time for vovv [0:26]      0.29 sec, wall time      0.03 sec
    CPU time for ovvv      0.34 sec, wall time      0.03 sec
max_memory 63559 MB,  nocc,nvir = 15,26  blksize = 26
    CPU time for voov [0:26]      0.59 sec, wall time      0.11 sec
    CPU time for update t1 t2      3.94 sec, wall time      0.26 sec
diis-c [-0.00138278  0.27966108  0.72033892]
DIIS for step 2
cycle = 3  E_corr(CCSD) = -0.70841133825546  dE = 0.022183656  norm(t1,t2) = 0.0573033
    CPU time for CCSD iter      4.45 sec, wall time      0.28 sec
    CPU time for vvvv [0:7]      0.04 sec, wall time      0.00 sec
    CPU time for vvvv [7:14]      0.04 sec, wall time      0.00 sec
    CPU time for vvvv [14:21]      0.05 sec, wall time      0.00 sec
    CPU time for vvvv [21:26]      0.05 sec, wall time      0.00 sec
    CPU time for vvvv      0.21 sec, wall time      0.01 sec
max_memory 63553 MB,  nocc,nvir = 15,26  blksize = 26
    CPU time for vovv [0:26]      1.60 sec, wall time      0.06 sec
    CPU time for ovvv      1.72 sec, wall time      0.06 sec
max_memory 63553 MB,  nocc,nvir = 15,26  blksize = 26
    CPU time for voov [0:26]      1.06 sec, wall time      0.09 sec
    CPU time for update t1 t2      3.09 sec, wall time      0.18 sec
diis-c [-2.87059998e-04 -2.79789557e-01 -1.91720908e-01  1.47151046e+00]
DIIS for step 3
cycle = 4  E_corr(CCSD) = -0.716551441939261  dE = -0.00814010368  norm(t1,t2) = 0.0254003
    CPU time for CCSD iter      3.39 sec, wall time      0.19 sec
    CPU time for vvvv [0:7]      0.03 sec, wall time      0.00 sec
    CPU time for vvvv [7:14]      0.03 sec, wall time      0.00 sec
    CPU time for vvvv [14:21]      0.05 sec, wall time      0.00 sec
    CPU time for vvvv [21:26]      0.05 sec, wall time      0.00 sec
    CPU time for vvvv      0.20 sec, wall time      0.01 sec
max_memory 63553 MB,  nocc,nvir = 15,26  blksize = 26
    CPU time for vovv [0:26]      0.52 sec, wall time      0.02 sec
    CPU time for ovvv      0.64 sec, wall time      0.02 sec
max_memory 63553 MB,  nocc,nvir = 15,26  blksize = 26
    CPU time for voov [0:26]      1.77 sec, wall time      0.11 sec
    CPU time for update t1 t2      2.69 sec, wall time      0.15 sec
diis-c [-4.87556868e-05 -1.58214946e-01 -1.83188033e-01  2.54587781e-01
  1.08681520e+00]
DIIS for step 4
cycle = 5  E_corr(CCSD) = -0.723726944213353  dE = -0.00717550227  norm(t1,t2) = 0.0118867
    CPU time for CCSD iter      3.15 sec, wall time      0.17 sec
    CPU time for vvvv [0:7]      0.40 sec, wall time      0.01 sec
    CPU time for vvvv [7:14]      0.29 sec, wall time      0.01 sec
    CPU time for vvvv [14:21]      0.04 sec, wall time      0.00 sec
    CPU time for vvvv [21:26]      0.05 sec, wall time      0.00 sec
    CPU time for vvvv      0.82 sec, wall time      0.03 sec
max_memory 63552 MB,  nocc,nvir = 15,26  blksize = 26
    CPU time for vovv [0:26]      0.53 sec, wall time      0.02 sec
    CPU time for ovvv      0.63 sec, wall time      0.02 sec
max_memory 63551 MB,  nocc,nvir = 15,26  blksize = 26
    CPU time for voov [0:26]      1.41 sec, wall time      0.10 sec
    CPU time for update t1 t2      2.94 sec, wall time      0.16 sec
diis-c [-9.30987201e-06  1.09645237e-01  1.24537055e-01 -3.41015305e-01
 -4.69784022e-01  1.57661704e+00]
DIIS for step 5
cycle = 6  E_corr(CCSD) = -0.723858162877868  dE = -0.000131218665  norm(t1,t2) = 0.00412648
    CPU time for CCSD iter      3.59 sec, wall time      0.19 sec
    CPU time for vvvv [0:7]      0.59 sec, wall time      0.02 sec
    CPU time for vvvv [7:14]      1.18 sec, wall time      0.04 sec
    CPU time for vvvv [14:21]      1.00 sec, wall time      0.04 sec
    CPU time for vvvv [21:26]      0.02 sec, wall time      0.00 sec
    CPU time for vvvv      2.81 sec, wall time      0.10 sec
max_memory 63547 MB,  nocc,nvir = 15,26  blksize = 26
    CPU time for vovv [0:26]      0.18 sec, wall time      0.02 sec
    CPU time for ovvv      0.23 sec, wall time      0.02 sec
max_memory 63546 MB,  nocc,nvir = 15,26  blksize = 26
    CPU time for voov [0:26]      0.46 sec, wall time      0.08 sec
    CPU time for update t1 t2      3.59 sec, wall time      0.22 sec
diis-c [-2.37367429e-06  3.98227583e-02  4.08513766e-02 -6.92975582e-02
 -2.53664242e-01  2.05978780e-01  1.03630888e+00]
DIIS for step 6
cycle = 7  E_corr(CCSD) = -0.72344397404562  dE = 0.000414188832  norm(t1,t2) = 0.00189129
    CPU time for CCSD iter      3.81 sec, wall time      0.23 sec
    CPU time for vvvv [0:7]      0.03 sec, wall time      0.00 sec
    CPU time for vvvv [7:14]      0.03 sec, wall time      0.00 sec
    CPU time for vvvv [14:21]      0.04 sec, wall time      0.00 sec
    CPU time for vvvv [21:26]      0.05 sec, wall time      0.00 sec
    CPU time for vvvv      0.18 sec, wall time      0.01 sec
max_memory 63543 MB,  nocc,nvir = 15,26  blksize = 26
    CPU time for vovv [0:26]      0.48 sec, wall time      0.02 sec
    CPU time for ovvv      0.59 sec, wall time      0.02 sec
max_memory 63541 MB,  nocc,nvir = 15,26  blksize = 26
    CPU time for voov [0:26]      1.81 sec, wall time      0.11 sec
    CPU time for update t1 t2      2.67 sec, wall time      0.15 sec
diis-c [-1.14441986e-06  1.09377917e+00 -3.19969108e-03  9.47956733e-03
 -9.06722260e-03 -1.45608242e-01  5.46164150e-02]
DIIS for step 7
cycle = 8  E_corr(CCSD) = -0.723547267562272  dE = -0.000103293517  norm(t1,t2) = 0.00117487
    CPU time for CCSD iter      2.95 sec, wall time      0.17 sec
    CPU time for vvvv [0:7]      0.44 sec, wall time      0.02 sec
    CPU time for vvvv [7:14]      0.04 sec, wall time      0.00 sec
    CPU time for vvvv [14:21]      0.06 sec, wall time      0.00 sec
    CPU time for vvvv [21:26]      0.23 sec, wall time      0.01 sec
    CPU time for vvvv      0.82 sec, wall time      0.03 sec
max_memory 63539 MB,  nocc,nvir = 15,26  blksize = 26
    CPU time for vovv [0:26]      1.46 sec, wall time      0.06 sec
    CPU time for ovvv      1.59 sec, wall time      0.06 sec
max_memory 63539 MB,  nocc,nvir = 15,26  blksize = 26
    CPU time for voov [0:26]      0.67 sec, wall time      0.06 sec
    CPU time for update t1 t2      3.26 sec, wall time      0.17 sec
diis-c [-2.12004862e-07 -9.28231414e-01  2.09823561e+00 -9.71074205e-03
  3.31135529e-02  1.12736659e-01 -3.06143664e-01]
DIIS for step 8
cycle = 9  E_corr(CCSD) = -0.723582430571885  dE = -3.51630096e-05  norm(t1,t2) = 0.000716968
    CPU time for CCSD iter      3.51 sec, wall time      0.19 sec
    CPU time for vvvv [0:7]      0.03 sec, wall time      0.00 sec
    CPU time for vvvv [7:14]      0.03 sec, wall time      0.00 sec
    CPU time for vvvv [14:21]      0.04 sec, wall time      0.00 sec
    CPU time for vvvv [21:26]      0.04 sec, wall time      0.00 sec
    CPU time for vvvv      0.18 sec, wall time      0.01 sec
max_memory 63538 MB,  nocc,nvir = 15,26  blksize = 26
    CPU time for vovv [0:26]      0.45 sec, wall time      0.02 sec
    CPU time for ovvv      0.54 sec, wall time      0.02 sec
max_memory 63538 MB,  nocc,nvir = 15,26  blksize = 26
    CPU time for voov [0:26]      2.00 sec, wall time      0.13 sec
    CPU time for update t1 t2      2.81 sec, wall time      0.17 sec
diis-c [-1.37127365e-07 -6.58376731e-01  8.61151973e-01  8.05519737e-01
  1.02275652e-02  6.02219388e-02 -7.87444830e-02]
DIIS for step 9
cycle = 10  E_corr(CCSD) = -0.723516531503272  dE = 6.58990686e-05  norm(t1,t2) = 0.000475027
    CPU time for CCSD iter      3.34 sec, wall time      0.19 sec
    CPU time for vvvv [0:7]      0.04 sec, wall time      0.00 sec
    CPU time for vvvv [7:14]      0.04 sec, wall time      0.00 sec
    CPU time for vvvv [14:21]      0.06 sec, wall time      0.00 sec
    CPU time for vvvv [21:26]      0.07 sec, wall time      0.00 sec
    CPU time for vvvv      0.26 sec, wall time      0.01 sec
max_memory 63538 MB,  nocc,nvir = 15,26  blksize = 26
    CPU time for vovv [0:26]      0.80 sec, wall time      0.03 sec
    CPU time for ovvv      0.98 sec, wall time      0.04 sec
max_memory 63538 MB,  nocc,nvir = 15,26  blksize = 26
    CPU time for voov [0:26]      1.25 sec, wall time      0.10 sec
    CPU time for update t1 t2      2.57 sec, wall time      0.16 sec
diis-c [-4.65138679e-08  9.10871476e-02 -1.39519245e-01 -9.58437738e-01
  1.96423594e+00 -2.67477694e-02  6.93816602e-02]
DIIS for step 10
cycle = 11  E_corr(CCSD) = -0.723509639086237  dE = 6.89241703e-06  norm(t1,t2) = 0.000290384
    CPU time for CCSD iter      2.89 sec, wall time      0.18 sec
    CPU time for vvvv [0:7]      0.57 sec, wall time      0.02 sec
    CPU time for vvvv [7:14]      1.39 sec, wall time      0.06 sec
    CPU time for vvvv [14:21]      0.74 sec, wall time      0.03 sec
    CPU time for vvvv [21:26]      0.03 sec, wall time      0.00 sec
    CPU time for vvvv      2.76 sec, wall time      0.11 sec
max_memory 63538 MB,  nocc,nvir = 15,26  blksize = 26
    CPU time for vovv [0:26]      0.24 sec, wall time      0.03 sec
    CPU time for ovvv      0.29 sec, wall time      0.03 sec
max_memory 63538 MB,  nocc,nvir = 15,26  blksize = 26
    CPU time for voov [0:26]      0.65 sec, wall time      0.13 sec
    CPU time for update t1 t2      4.00 sec, wall time      0.30 sec
diis-c [-2.40479021e-08 -6.36158826e-02  2.18837105e-01 -6.76430200e-01
  3.84090487e-02  1.47704548e+00  5.75445180e-03]
DIIS for step 11
cycle = 12  E_corr(CCSD) = -0.723497223761544  dE = 1.24153247e-05  norm(t1,t2) = 0.000225706
    CPU time for CCSD iter      4.45 sec, wall time      0.32 sec
    CPU time for vvvv [0:7]      0.35 sec, wall time      0.01 sec
    CPU time for vvvv [7:14]      1.02 sec, wall time      0.03 sec
    CPU time for vvvv [14:21]      0.05 sec, wall time      0.00 sec
    CPU time for vvvv [21:26]      0.05 sec, wall time      0.00 sec
    CPU time for vvvv      1.51 sec, wall time      0.05 sec
max_memory 63537 MB,  nocc,nvir = 15,26  blksize = 26
    CPU time for vovv [0:26]      2.02 sec, wall time      0.10 sec
    CPU time for ovvv      2.08 sec, wall time      0.11 sec
max_memory 63537 MB,  nocc,nvir = 15,26  blksize = 26
    CPU time for voov [0:26]      0.82 sec, wall time      0.12 sec
    CPU time for update t1 t2      4.53 sec, wall time      0.29 sec
diis-c [-6.50828151e-09 -7.69915491e-02  1.77992496e-01 -1.01439756e-01
 -3.70232932e-01  1.59171729e-02  1.35475457e+00]
DIIS for step 12
cycle = 13  E_corr(CCSD) = -0.72350351306765  dE = -6.28930611e-06  norm(t1,t2) = 0.000123821
    CPU time for CCSD iter      4.72 sec, wall time      0.30 sec
    CPU time for vvvv [0:7]      0.62 sec, wall time      0.02 sec
    CPU time for vvvv [7:14]      0.40 sec, wall time      0.01 sec
    CPU time for vvvv [14:21]      1.98 sec, wall time      0.07 sec
    CPU time for vvvv [21:26]      0.02 sec, wall time      0.00 sec
    CPU time for vvvv      3.05 sec, wall time      0.12 sec
max_memory 63537 MB,  nocc,nvir = 15,26  blksize = 26
    CPU time for vovv [0:26]      0.18 sec, wall time      0.02 sec
    CPU time for ovvv      0.23 sec, wall time      0.02 sec
max_memory 63537 MB,  nocc,nvir = 15,26  blksize = 26
    CPU time for voov [0:26]      0.56 sec, wall time      0.10 sec
    CPU time for update t1 t2      3.99 sec, wall time      0.26 sec
diis-c [-1.64574162e-09  1.39807414e+00 -1.86248751e-02  1.36177556e-01
  1.82967033e-01 -7.36112162e-01  3.75183111e-02]
DIIS for step 13
cycle = 14  E_corr(CCSD) = -0.723521613133239  dE = -1.81000656e-05  norm(t1,t2) = 6.58236e-05
    CPU time for CCSD iter      4.26 sec, wall time      0.27 sec
    CPU time for vvvv [0:7]      0.30 sec, wall time      0.01 sec
    CPU time for vvvv [7:14]      0.04 sec, wall time      0.00 sec
    CPU time for vvvv [14:21]      0.06 sec, wall time      0.00 sec
    CPU time for vvvv [21:26]      0.06 sec, wall time      0.00 sec
    CPU time for vvvv      0.52 sec, wall time      0.02 sec
max_memory 63536 MB,  nocc,nvir = 15,26  blksize = 26
    CPU time for vovv [0:26]      0.71 sec, wall time      0.03 sec
    CPU time for ovvv      0.85 sec, wall time      0.03 sec
max_memory 63536 MB,  nocc,nvir = 15,26  blksize = 26
    CPU time for voov [0:26]      1.43 sec, wall time      0.11 sec
    CPU time for update t1 t2      2.98 sec, wall time      0.18 sec
diis-c [-5.33479407e-10  2.23680461e-01  9.06602745e-01 -2.06889847e-02
  1.29443883e-01 -1.72971925e-01 -6.60661799e-02]
DIIS for step 14
cycle = 15  E_corr(CCSD) = -0.723518200912874  dE = 3.41222037e-06  norm(t1,t2) = 2.75582e-05
    CPU time for CCSD iter      3.20 sec, wall time      0.19 sec
    CPU time for vvvv [0:7]      0.03 sec, wall time      0.00 sec
    CPU time for vvvv [7:14]      0.03 sec, wall time      0.00 sec
    CPU time for vvvv [14:21]      0.06 sec, wall time      0.00 sec
    CPU time for vvvv [21:26]      0.05 sec, wall time      0.00 sec
    CPU time for vvvv      0.21 sec, wall time      0.01 sec
max_memory 63536 MB,  nocc,nvir = 15,26  blksize = 26
    CPU time for vovv [0:26]      0.63 sec, wall time      0.02 sec
    CPU time for ovvv      0.76 sec, wall time      0.03 sec
max_memory 63536 MB,  nocc,nvir = 15,26  blksize = 26
    CPU time for voov [0:26]      1.68 sec, wall time      0.10 sec
    CPU time for update t1 t2      2.90 sec, wall time      0.16 sec
diis-c [-2.32863455e-10 -1.89718301e-01 -2.98575935e-02  1.22474310e+00
  3.40505840e-03 -3.93053210e-02  3.07330557e-02]
DIIS for step 15
cycle = 16  E_corr(CCSD) = -0.723518456917918  dE = -2.56005045e-07  norm(t1,t2) = 2.03329e-05
    CPU time for CCSD iter      3.34 sec, wall time      0.18 sec
    CPU time for vvvv [0:7]      0.03 sec, wall time      0.00 sec
    CPU time for vvvv [7:14]      0.03 sec, wall time      0.00 sec
    CPU time for vvvv [14:21]      0.04 sec, wall time      0.00 sec
    CPU time for vvvv [21:26]      0.05 sec, wall time      0.00 sec
    CPU time for vvvv      0.19 sec, wall time      0.01 sec
max_memory 63536 MB,  nocc,nvir = 15,26  blksize = 26
    CPU time for vovv [0:26]      0.48 sec, wall time      0.02 sec
    CPU time for ovvv      0.64 sec, wall time      0.02 sec
max_memory 63536 MB,  nocc,nvir = 15,26  blksize = 26
    CPU time for voov [0:26]      1.93 sec, wall time      0.12 sec
    CPU time for update t1 t2      2.98 sec, wall time      0.18 sec
diis-c [-4.58022553e-11 -3.72191777e-02 -3.26828250e-01 -3.16906278e-01
  1.58283495e+00  1.00024630e-02  8.81162909e-02]
DIIS for step 16
cycle = 17  E_corr(CCSD) = -0.723516880792365  dE = 1.57612555e-06  norm(t1,t2) = 1.03424e-05
    CPU time for CCSD iter      3.46 sec, wall time      0.20 sec
    CPU time for vvvv [0:7]      0.43 sec, wall time      0.02 sec
    CPU time for vvvv [7:14]      1.12 sec, wall time      0.04 sec
    CPU time for vvvv [14:21]      1.52 sec, wall time      0.06 sec
    CPU time for vvvv [21:26]      1.04 sec, wall time      0.09 sec
    CPU time for vvvv      4.13 sec, wall time      0.21 sec
max_memory 63536 MB,  nocc,nvir = 15,26  blksize = 26
    CPU time for vovv [0:26]      0.23 sec, wall time      0.02 sec
    CPU time for ovvv      0.28 sec, wall time      0.02 sec
max_memory 63536 MB,  nocc,nvir = 15,26  blksize = 26
    CPU time for voov [0:26]      0.58 sec, wall time      0.09 sec
    CPU time for update t1 t2      5.09 sec, wall time      0.34 sec
diis-c [-1.48149635e-11  3.27594226e-02 -9.01514864e-02 -3.77195683e-01
  4.02514069e-01  1.02126193e+00  1.08117520e-02]
DIIS for step 17
cycle = 18  E_corr(CCSD) = -0.723515806605005  dE = 1.07418736e-06  norm(t1,t2) = 6.24889e-06
    CPU time for CCSD iter      5.41 sec, wall time      0.35 sec
    CPU time for vvvv [0:7]      0.55 sec, wall time      0.02 sec
    CPU time for vvvv [7:14]      1.22 sec, wall time      0.04 sec
    CPU time for vvvv [14:21]      0.06 sec, wall time      0.00 sec
    CPU time for vvvv [21:26]      0.21 sec, wall time      0.01 sec
    CPU time for vvvv      2.13 sec, wall time      0.08 sec
max_memory 63536 MB,  nocc,nvir = 15,26  blksize = 26
    CPU time for vovv [0:26]      1.08 sec, wall time      0.06 sec
    CPU time for ovvv      1.16 sec, wall time      0.07 sec
max_memory 63536 MB,  nocc,nvir = 15,26  blksize = 26
    CPU time for voov [0:26]      0.64 sec, wall time      0.12 sec
    CPU time for update t1 t2      4.09 sec, wall time      0.29 sec
diis-c [-3.10222435e-12  7.02066302e-03  7.43025711e-02  1.87140672e-02
 -6.27955415e-02 -6.25857000e-01  1.58861524e+00]
DIIS for step 18
cycle = 19  E_corr(CCSD) = -0.723515558648301  dE = 2.47956705e-07  norm(t1,t2) = 2.43083e-06
    CPU time for CCSD iter      4.32 sec, wall time      0.30 sec
    CPU time for vvvv [0:7]      0.03 sec, wall time      0.00 sec
    CPU time for vvvv [7:14]      0.03 sec, wall time      0.00 sec
    CPU time for vvvv [14:21]      0.04 sec, wall time      0.00 sec
    CPU time for vvvv [21:26]      0.04 sec, wall time      0.00 sec
    CPU time for vvvv      0.17 sec, wall time      0.01 sec
max_memory 63535 MB,  nocc,nvir = 15,26  blksize = 26
    CPU time for vovv [0:26]      0.50 sec, wall time      0.02 sec
    CPU time for ovvv      0.61 sec, wall time      0.02 sec
max_memory 63535 MB,  nocc,nvir = 15,26  blksize = 26
    CPU time for voov [0:26]      1.84 sec, wall time      0.11 sec
    CPU time for update t1 t2      2.71 sec, wall time      0.16 sec
diis-c [-8.99317222e-13  9.87254484e-01  2.91230410e-02  7.58401207e-03
 -1.20837941e-02 -3.95731302e-01  3.83853558e-01]
DIIS for step 19
cycle = 20  E_corr(CCSD) = -0.723515534192916  dE = 2.44553846e-08  norm(t1,t2) = 1.61709e-06
    CPU time for CCSD iter      2.99 sec, wall time      0.17 sec
    CPU time for CCSD     79.09 sec, wall time      4.85 sec
CCSD converged
E(CCSD) = -43.29299982875904  E_corr = -0.723515534192916
Ewald components = 0.0119067085441877, -48.2734544881799, -6.49359415252778
